/*--------------------------------*- C++ -*----------------------------------*\
  =========                 |
  \\      /  F ield         | OpenFOAM: The Open Source CFD Toolbox
   \\    /   O peration     | Website:  https://openfoam.org
    \\  /    A nd           | Version:  6
     \\/     M anipulation  |
\*---------------------------------------------------------------------------*/
FoamFile
{
    version     2.0;
    format      ascii;
    class       volScalarField;
    location    "0.3";
    object      p;
}
// * * * * * * * * * * * * * * * * * * * * * * * * * * * * * * * * * * * * * //

dimensions      [0 2 -2 0 0 0 0];

internalField   nonuniform List<scalar> 
400
(
5.84496e-06
-0.0231872
-0.052067
-0.0743222
-0.0826432
-0.0737566
-0.0474176
-0.00555998
0.0483932
0.110045
0.174426
0.236345
0.290734
0.333033
0.359653
0.368562
0.360018
0.337433
0.30833
0.285147
0.0229889
-0.0008417
-0.0235045
-0.0388484
-0.0432783
-0.0344957
-0.012203
0.0222061
0.0661364
0.116167
0.168372
0.218631
0.262934
0.297724
0.320265
0.329079
0.324468
0.30884
0.285983
0.262193
0.0535358
0.0205146
-0.0040069
-0.0181585
-0.0217588
-0.0135558
0.00642931
0.0368473
0.0754274
0.119244
0.16495
0.209023
0.248028
0.27889
0.299181
0.307447
0.303662
0.289183
0.26441
0.231419
0.0816216
0.035941
0.00545037
-0.0106867
-0.0150842
-0.00741716
0.0118183
0.0410292
0.0779361
0.119765
0.163402
0.205578
0.243068
0.27291
0.292617
0.300447
0.295869
0.279317
0.248443
0.202705
0.10073
0.0416727
0.00403249
-0.0149491
-0.0202791
-0.0124555
0.0075037
0.0376345
0.0754834
0.118249
0.162867
0.20613
0.244831
0.275918
0.296658
0.304859
0.299417
0.279934
0.241711
0.182395
0.106184
0.0334795
-0.011617
-0.0333666
-0.0389632
-0.0296871
-0.0071267
0.0262844
0.0677983
0.114458
0.163119
0.210503
0.253278
0.288159
0.312008
0.322054
0.316536
0.294236
0.248295
0.174971
0.0939261
0.00716611
-0.0452617
-0.0690026
-0.073481
-0.060824
-0.0332818
0.00614051
0.054305
0.108014
0.163963
0.218722
0.268745
0.310401
0.340024
0.354112
0.350105
0.325865
0.272279
0.18433
0.0596262
-0.0418549
-0.101097
-0.125306
-0.126473
-0.10778
-0.0722958
-0.0237116
0.0343739
0.0984879
0.16515
0.230767
0.291555
0.343478
0.382227
0.4034
0.403419
0.378954
0.318223
0.214731
-0.00204255
-0.11917
-0.184208
-0.206423
-0.20108
-0.172796
-0.125698
-0.0642945
0.00731755
0.0854189
0.166419
0.246636
0.322101
0.388383
0.440451
0.472808
0.480536
0.458635
0.391834
0.271594
-0.0981037
-0.231974
-0.30094
-0.317328
-0.300882
-0.258269
-0.195001
-0.116538
-0.0274508
0.068412
0.167521
0.266293
0.36074
0.446145
0.51674
0.565732
0.586443
0.571464
0.500646
0.362304
-0.238222
-0.389873
-0.459321
-0.463864
-0.429687
-0.366413
-0.28133
-0.180936
-0.0701514
0.0473015
0.16827
0.289606
0.40763
0.517593
0.613109
0.685948
0.727173
0.725906
0.654918
0.497273
-0.436304
-0.60609
-0.66958
-0.652677
-0.591125
-0.498705
-0.384859
-0.257065
-0.120269
0.0223852
0.168631
0.316287
0.462516
0.603028
0.731169
0.837321
0.909822
0.93294
0.868947
0.69172
-0.713586
-0.899404
-0.944704
-0.890869
-0.787857
-0.654988
-0.503993
-0.342919
-0.176076
-0.00528688
0.168816
0.345783
0.524414
0.701699
0.871473
1.0232
1.14232
1.2067
1.16312
0.96897
-1.10504
-1.29729
-1.30074
-1.18488
-1.02003
-0.83199
-0.634166
-0.434044
-0.234069
-0.0336197
0.169328
0.377057
0.591081
0.81092
1.03229
1.24504
1.43243
1.56485
1.5672
1.3672
-1.67262
-1.84052
-1.75571
-1.53746
-1.28215
-1.02084
-0.766133
-0.522489
-0.288422
-0.0592917
0.170833
0.408115
0.658097
0.924539
1.20733
1.4995
1.78482
2.02754
2.12493
1.95306
-2.52804
-2.58723
-2.32554
-1.94252
-1.55887
-1.20424
-0.884448
-0.596191
-0.330905
-0.0779638
0.173763
0.435411
0.717878
1.03122
1.38287
1.77417
2.19596
2.61319
2.89777
2.84434
-3.873
-3.61305
-3.0165
-2.38086
-1.82324
-1.35642
-0.968444
-0.6404
-0.352264
-0.0853357
0.177703
0.453623
0.759656
1.11425
1.53688
2.04545
2.64948
3.33063
3.96435
4.24908
-6.15941
-5.01374
-3.78644
-2.79028
-2.01928
-1.43417
-0.988421
-0.63663
-0.342544
-0.0781362
0.179931
0.453513
0.765966
1.14532
1.62783
2.259
3.0847
4.13978
5.42506
6.62751
-10.5695
-6.84899
-4.35764
-2.91497
-1.96812
-1.32305
-0.875109
-0.545551
-0.28241
-0.0515989
0.172432
0.412774
0.695021
1.05334
1.53992
2.23474
3.24505
4.76455
7.34525
11.1677
-17.9825
-8.6112
-4.15441
-2.37805
-1.46163
-0.918362
-0.578362
-0.3445
-0.163424
-0.00553487
0.148964
0.317269
0.519128
0.783952
1.16479
1.76025
2.74769
4.62118
9.19196
18.678
)
;

boundaryField
{
    movingWall
    {
        type            zeroGradient;
    }
    fixedWalls
    {
        type            zeroGradient;
    }
    frontAndBack
    {
        type            empty;
    }
}


// ************************************************************************* //
