/*--------------------------------*- C++ -*----------------------------------*\
  =========                 |
  \\      /  F ield         | OpenFOAM: The Open Source CFD Toolbox
   \\    /   O peration     | Website:  https://openfoam.org
    \\  /    A nd           | Version:  6
     \\/     M anipulation  |
\*---------------------------------------------------------------------------*/
FoamFile
{
    version     2.0;
    format      ascii;
    class       volVectorField;
    location    "0.075";
    object      U;
}
// * * * * * * * * * * * * * * * * * * * * * * * * * * * * * * * * * * * * * //

dimensions      [0 1 -1 0 0 0 0];

internalField   nonuniform List<vector> 
400
(
(0.000156315 -0.00015457 0)
(-3.50134e-05 0.000157063 0)
(-0.001174 0.000498379 0)
(-0.00302697 0.000718736 0)
(-0.00526286 0.000815113 0)
(-0.00758973 0.000808756 0)
(-0.0097664 0.000722415 0)
(-0.0116022 0.000575686 0)
(-0.0129518 0.000384094 0)
(-0.0137093 0.000160695 0)
(-0.013806 -8.13885e-05 0)
(-0.0132145 -0.000326502 0)
(-0.0119571 -0.000554666 0)
(-0.010117 -0.000740905 0)
(-0.00784863 -0.000856143 0)
(-0.0053825 -0.000870234 0)
(-0.00301717 -0.000757628 0)
(-0.00109639 -0.000505423 0)
(3.33656e-05 -0.000136503 0)
(0.000179341 0.000173991 0)
(-0.00013506 1.42826e-05 0)
(-0.00149114 0.00150709 0)
(-0.0047998 0.00297424 0)
(-0.00949856 0.0039457 0)
(-0.0149356 0.00437009 0)
(-0.0205169 0.00430391 0)
(-0.0257121 0.0038322 0)
(-0.0300802 0.00304171 0)
(-0.0332774 0.00201139 0)
(-0.0350535 0.000814776 0)
(-0.0352523 -0.000472006 0)
(-0.0338203 -0.00176145 0)
(-0.0308228 -0.00294834 0)
(-0.026464 -0.00390871 0)
(-0.0211025 -0.00450663 0)
(-0.0152522 -0.00461118 0)
(-0.00955151 -0.00412537 0)
(-0.00469536 -0.00302583 0)
(-0.0013748 -0.00144144 0)
(-9.16981e-05 6.15567e-05 0)
(-0.000483656 0.00112224 0)
(-0.00309012 0.0048359 0)
(-0.00848742 0.00814279 0)
(-0.0156762 0.0103162 0)
(-0.0237379 0.0112316 0)
(-0.0318868 0.0109818 0)
(-0.0394109 0.00974214 0)
(-0.0457086 0.00770938 0)
(-0.0503068 0.00507572 0)
(-0.05286 0.00202881 0)
(-0.0531528 -0.00123465 0)
(-0.0511115 -0.00449179 0)
(-0.0468254 -0.00748143 0)
(-0.0405715 -0.009904 0)
(-0.0328355 -0.0114401 0)
(-0.0243111 -0.0117929 0)
(-0.0158562 -0.0107563 0)
(-0.00840349 -0.00830455 0)
(-0.00294639 -0.00472575 0)
(-0.000423571 -0.000959363 0)
(-0.000778384 0.00307726 0)
(-0.00454734 0.00994201 0)
(-0.0119476 0.0155825 0)
(-0.0214793 0.0191766 0)
(-0.0319344 0.0205899 0)
(-0.0423597 0.0199865 0)
(-0.0519084 0.0176598 0)
(-0.0598695 0.0139434 0)
(-0.0656845 0.0091701 0)
(-0.068943 0.00366936 0)
(-0.0693827 -0.00221194 0)
(-0.066903 -0.00808254 0)
(-0.0615909 -0.0134867 0)
(-0.0537542 -0.0179045 0)
(-0.0439524 -0.0207832 0)
(-0.0330069 -0.0216095 0)
(-0.0219579 -0.0200229 0)
(-0.0119732 -0.0159575 0)
(-0.00440001 -0.0098173 0)
(-0.000701263 -0.00280459 0)
(-0.00103668 0.00576812 0)
(-0.00591176 0.016694 0)
(-0.0152865 0.0251357 0)
(-0.0271356 0.0303111 0)
(-0.0399337 0.0321735 0)
(-0.0525569 0.0310221 0)
(-0.064042 0.0273099 0)
(-0.0735969 0.0215344 0)
(-0.0806044 0.0141864 0)
(-0.0846063 0.00574927 0)
(-0.0852965 -0.00326986 0)
(-0.0825334 -0.0122984 0)
(-0.0763723 -0.0206655 0)
(-0.067111 -0.0275978 0)
(-0.0553422 -0.0322612 0)
(-0.041986 -0.0338629 0)
(-0.0282644 -0.031814 0)
(-0.0156192 -0.0259304 0)
(-0.00582817 -0.0166539 0)
(-0.000950005 -0.00538089 0)
(-0.00128979 0.00916044 0)
(-0.00728961 0.0250943 0)
(-0.0187041 0.0368462 0)
(-0.0329518 0.0437736 0)
(-0.0481601 0.046024 0)
(-0.0630259 0.0441152 0)
(-0.0764798 0.0387171 0)
(-0.0876683 0.0305239 0)
(-0.0959367 0.0201984 0)
(-0.100792 0.00837951 0)
(-0.101882 -0.00426948 0)
(-0.099007 -0.0169966 0)
(-0.0921567 -0.0289067 0)
(-0.0815746 -0.0389432 0)
(-0.0678417 -0.0459325 0)
(-0.05195 -0.0487139 0)
(-0.0353096 -0.046359 0)
(-0.0196902 -0.0384489 0)
(-0.00740245 -0.0253708 0)
(-0.00121428 -0.00869918 0)
(-0.00156624 0.013287 0)
(-0.00878826 0.0352393 0)
(-0.0224062 0.0508456 0)
(-0.0392194 0.0596955 0)
(-0.0569722 0.0622522 0)
(-0.0741763 0.0593557 0)
(-0.0896703 0.0519637 0)
(-0.102565 0.0410057 0)
(-0.112192 0.0273278 0)
(-0.11804 0.011715 0)
(-0.119716 -0.005033 0)
(-0.116942 -0.0220041 0)
(-0.109604 -0.0380841 0)
(-0.0978354 -0.0519097 0)
(-0.0821465 -0.0619019 0)
(-0.0635533 -0.0664162 0)
(-0.0436455 -0.0640276 0)
(-0.0245728 -0.0539135 0)
(-0.00931378 -0.0362796 0)
(-0.00154045 -0.0128772 0)
(-0.00189128 0.018239 0)
(-0.0105044 0.0473155 0)
(-0.0265712 0.06734 0)
(-0.0461654 0.0782524 0)
(-0.0666013 0.080984 0)
(-0.0862095 0.0768273 0)
(-0.103765 0.067116 0)
(-0.118383 0.0530593 0)
(-0.129423 0.0356928 0)
(-0.136384 0.0159263 0)
(-0.138843 -0.00534273 0)
(-0.136435 -0.027084 0)
(-0.128902 -0.0479924 0)
(-0.116201 -0.066391 0)
(-0.0986801 -0.0802294 0)
(-0.0772953 -0.0872388 0)
(-0.0537651 -0.0852839 0)
(-0.0306491 -0.0728899 0)
(-0.0117609 -0.0498779 0)
(-0.0019773 -0.018141 0)
(-0.0022889 0.0241591 0)
(-0.0125238 0.0615865 0)
(-0.0313371 0.0865834 0)
(-0.0539178 0.099616 0)
(-0.0770956 0.102293 0)
(-0.099041 0.0965278 0)
(-0.118521 0.0841406 0)
(-0.134718 0.06667 0)
(-0.147084 0.045342 0)
(-0.155182 0.021155 0)
(-0.158591 -0.00495677 0)
(-0.156861 -0.0319163 0)
(-0.149558 -0.0582902 0)
(-0.136384 -0.0821131 0)
(-0.117407 -0.100817 0)
(-0.0933754 -0.111354 0)
(-0.0660137 -0.110602 0)
(-0.0382617 -0.0960681 0)
(-0.0149485 -0.0668437 0)
(-0.00257993 -0.0248285 0)
(-0.00278728 0.0312379 0)
(-0.0149317 0.0783717 0)
(-0.0368014 0.108825 0)
(-0.062481 0.12387 0)
(-0.0882613 0.12609 0)
(-0.112208 0.118248 0)
(-0.133173 0.102781 0)
(-0.150509 0.0816143 0)
(-0.163854 0.0561562 0)
(-0.172917 0.0274409 0)
(-0.177337 -0.00364665 0)
(-0.176613 -0.03609 0)
(-0.170119 -0.0684371 0)
(-0.157226 -0.0985154 0)
(-0.137574 -0.123242 0)
(-0.111489 -0.138651 0)
(-0.0804638 -0.140301 0)
(-0.0476692 -0.124159 0)
(-0.0190913 -0.0880055 0)
(-0.00341734 -0.0333977 0)
(-0.00342987 0.0397224 0)
(-0.0178366 0.0980259 0)
(-0.043033 0.134238 0)
(-0.0717104 0.15089 0)
(-0.0995916 0.151979 0)
(-0.124755 0.141412 0)
(-0.14629 0.122405 0)
(-0.163868 0.0973175 0)
(-0.177442 0.0677237 0)
(-0.186978 0.0346216 0)
(-0.192269 -0.00126417 0)
(-0.192826 -0.0391221 0)
(-0.187858 -0.0776487 0)
(-0.176358 -0.114626 0)
(-0.157382 -0.146552 0)
(-0.130547 -0.168476 0)
(-0.0967288 -0.174289 0)
(-0.0589729 -0.157715 0)
(-0.0244186 -0.114282 0)
(-0.00458566 -0.0444433 0)
(-0.00429748 0.0499479 0)
(-0.0214143 0.120925 0)
(-0.0500921 0.162815 0)
(-0.0812714 0.180176 0)
(-0.110158 0.179055 0)
(-0.135076 0.164883 0)
(-0.15559 0.141819 0)
(-0.171889 0.112695 0)
(-0.184402 0.0792029 0)
(-0.19348 0.0422143 0)
(-0.199186 0.00216408 0)
(-0.201151 -0.0405149 0)
(-0.198499 -0.084891 0)
(-0.189864 -0.128961 0)
(-0.173598 -0.169044 0)
(-0.148302 -0.199301 0)
(-0.113682 -0.211683 0)
(-0.0719895 -0.196829 0)
(-0.0311785 -0.146567 0)
(-0.00623071 -0.0587306 0)
(-0.00555141 0.0624183 0)
(-0.0259811 0.147449 0)
(-0.0580381 0.194205 0)
(-0.0905327 0.210596 0)
(-0.118409 0.205641 0)
(-0.140665 0.186728 0)
(-0.157694 0.159094 0)
(-0.170446 0.126013 0)
(-0.179984 0.0892076 0)
(-0.187164 0.0493103 0)
(-0.192431 0.00633103 0)
(-0.19567 -0.0398546 0)
(-0.196067 -0.0889421 0)
(-0.192016 -0.139497 0)
(-0.181183 -0.18809 0)
(-0.160894 -0.228353 0)
(-0.129039 -0.250305 0)
(-0.0860149 -0.240664 0)
(-0.0396215 -0.185522 0)
(-0.00858433 -0.0772582 0)
(-0.00751069 0.0779698 0)
(-0.0320912 0.17794 0)
(-0.0668496 0.227416 0)
(-0.0982676 0.240006 0)
(-0.121735 0.228943 0)
(-0.137665 0.203981 0)
(-0.14775 0.17142 0)
(-0.153939 0.134825 0)
(-0.158029 0.0957798 0)
(-0.161425 0.0545384 0)
(-0.165013 0.0105708 0)
(-0.169046 -0.036943 0)
(-0.172974 -0.0885549 0)
(-0.175219 -0.143796 0)
(-0.172984 -0.200098 0)
(-0.162319 -0.251315 0)
(-0.138732 -0.286067 0)
(-0.0993687 -0.286718 0)
(-0.0499011 -0.231145 0)
(-0.0120066 -0.10134 0)
(-0.0107568 0.0980473 0)
(-0.0405656 0.212493 0)
(-0.0760096 0.260236 0)
(-0.10184 0.264653 0)
(-0.115521 0.244661 0)
(-0.120014 0.212483 0)
(-0.118802 0.175148 0)
(-0.114944 0.136121 0)
(-0.110897 0.0965605 0)
(-0.108489 0.0561895 0)
(-0.108969 0.0138761 0)
(-0.112992 -0.0319291 0)
(-0.120475 -0.0827412 0)
(-0.130266 -0.139377 0)
(-0.139652 -0.200822 0)
(-0.143873 -0.262305 0)
(-0.135975 -0.312417 0)
(-0.108472 -0.329803 0)
(-0.0616667 -0.281933 0)
(-0.0169609 -0.132635 0)
(-0.0161241 0.125178 0)
(-0.0520134 0.250289 0)
(-0.0830106 0.28807 0)
(-0.0951473 0.278325 0)
(-0.0911632 0.246655 0)
(-0.0778963 0.207004 0)
(-0.0607945 0.166178 0)
(-0.0437405 0.126828 0)
(-0.0294328 0.0892874 0)
(-0.0197327 0.0526086 0)
(-0.0159625 0.0151032 0)
(-0.0190611 -0.0253643 0)
(-0.0295269 -0.0711388 0)
(-0.0470764 -0.124378 0)
(-0.0699297 -0.186152 0)
(-0.0936747 -0.254427 0)
(-0.10988 -0.320118 0)
(-0.105996 -0.360804 0)
(-0.0727471 -0.333447 0)
(-0.0236098 -0.173176 0)
(-0.0239325 0.164038 0)
(-0.0644167 0.287596 0)
(-0.0789066 0.301303 0)
(-0.0639011 0.270861 0)
(-0.0323597 0.226738 0)
(0.00465939 0.181825 0)
(0.0406959 0.140887 0)
(0.0721073 0.104792 0)
(0.0968601 0.0726673 0)
(0.113749 0.0428837 0)
(0.121861 0.0134146 0)
(0.120276 -0.0180897 0)
(0.107983 -0.0543404 0)
(0.0840956 -0.0984124 0)
(0.0485351 -0.153413 0)
(0.00356229 -0.221054 0)
(-0.0435792 -0.297597 0)
(-0.0775051 -0.365182 0)
(-0.0758348 -0.375771 0)
(-0.0301265 -0.225559 0)
(-0.0296111 0.220415 0)
(-0.0644544 0.311306 0)
(-0.0369288 0.280768 0)
(0.0237167 0.22732 0)
(0.0906169 0.176111 0)
(0.152481 0.13295 0)
(0.205171 0.0982744 0)
(0.247337 0.070539 0)
(0.278865 0.047709 0)
(0.299971 0.0277928 0)
(0.310641 0.00887394 0)
(0.310339 -0.0110428 0)
(0.297834 -0.0342825 0)
(0.271168 -0.0638491 0)
(0.227938 -0.103798 0)
(0.166448 -0.159135 0)
(0.0883001 -0.233627 0)
(0.00433154 -0.322051 0)
(-0.0510313 -0.386628 0)
(-0.0268346 -0.287315 0)
(0.00272162 0.269134 0)
(0.00722004 0.281534 0)
(0.114197 0.203143 0)
(0.230776 0.141034 0)
(0.325378 0.0977988 0)
(0.398639 0.0676731 0)
(0.454363 0.0466513 0)
(0.495523 0.0316778 0)
(0.524571 0.020476 0)
(0.543275 0.0114075 0)
(0.552554 0.0032143 0)
(0.552407 -0.00523782 0)
(0.541807 -0.0152289 0)
(0.518454 -0.0285735 0)
(0.478447 -0.0482926 0)
(0.416059 -0.0797044 0)
(0.323278 -0.131542 0)
(0.193149 -0.214271 0)
(0.0577705 -0.319319 0)
(0.0283248 -0.311905 0)
(0.294628 0.143288 0)
(0.384489 0.126063 0)
(0.537981 0.0772697 0)
(0.653451 0.0459682 0)
(0.723707 0.0277711 0)
(0.768188 0.0169543 0)
(0.797813 0.0104342 0)
(0.817614 0.00640032 0)
(0.830471 0.00375112 0)
(0.8381 0.00182696 0)
(0.84136 0.000211486 0)
(0.840433 -0.00140854 0)
(0.834859 -0.00335602 0)
(0.823348 -0.00611098 0)
(0.803278 -0.0105997 0)
(0.769541 -0.0188319 0)
(0.710587 -0.035205 0)
(0.600202 -0.0683252 0)
(0.431318 -0.125818 0)
(0.317435 -0.150912 0)
)
;

boundaryField
{
    movingWall
    {
        type            fixedValue;
        value           uniform (1 0 0);
    }
    fixedWalls
    {
        type            noSlip;
    }
    frontAndBack
    {
        type            empty;
    }
}


// ************************************************************************* //
