/*--------------------------------*- C++ -*----------------------------------*\
  =========                 |
  \\      /  F ield         | OpenFOAM: The Open Source CFD Toolbox
   \\    /   O peration     | Website:  https://openfoam.org
    \\  /    A nd           | Version:  6
     \\/     M anipulation  |
\*---------------------------------------------------------------------------*/
FoamFile
{
    version     2.0;
    format      ascii;
    class       volVectorField;
    location    "0.035";
    object      U;
}
// * * * * * * * * * * * * * * * * * * * * * * * * * * * * * * * * * * * * * //

dimensions      [0 1 -1 0 0 0 0];

internalField   nonuniform List<vector> 
400
(
(-0.000160792 0.000158086 0)
(-0.000958374 0.000519352 0)
(-0.00238868 0.000648807 0)
(-0.00395129 0.000645087 0)
(-0.00541991 0.000590904 0)
(-0.00672577 0.000514613 0)
(-0.00783134 0.000423827 0)
(-0.00870626 0.000321418 0)
(-0.00932597 0.000209544 0)
(-0.00967143 9.04701e-05 0)
(-0.00972938 -3.3277e-05 0)
(-0.00949283 -0.000158852 0)
(-0.00896187 -0.000283044 0)
(-0.00814448 -0.000402235 0)
(-0.00705772 -0.000512281 0)
(-0.00572937 -0.000607719 0)
(-0.00420059 -0.000677699 0)
(-0.00255187 -0.000689833 0)
(-0.00103265 -0.000556659 0)
(-0.000176834 -0.000174978 0)
(-0.000530485 0.000955349 0)
(-0.00235881 0.00231837 0)
(-0.00518948 0.0027956 0)
(-0.00820455 0.0027781 0)
(-0.0110372 0.00254925 0)
(-0.0135587 0.00221805 0)
(-0.0156893 0.00182038 0)
(-0.0173671 0.00137176 0)
(-0.0185453 0.000883361 0)
(-0.0191892 0.000365908 0)
(-0.0192763 -0.000169288 0)
(-0.0187962 -0.000709898 0)
(-0.0177517 -0.00124218 0)
(-0.0161611 -0.0017506 0)
(-0.0140597 -0.00221686 0)
(-0.0115055 -0.002616 0)
(-0.00858366 -0.00290022 0)
(-0.00544049 -0.00294588 0)
(-0.00247651 -0.00245362 0)
(-0.000557595 -0.00101888 0)
(-0.000702086 0.00243814 0)
(-0.00303049 0.00520823 0)
(-0.00653599 0.00613978 0)
(-0.0102186 0.00608545 0)
(-0.0136608 0.00558367 0)
(-0.0167191 0.0048537 0)
(-0.019299 0.00397534 0)
(-0.021327 0.00298558 0)
(-0.0227481 0.00191078 0)
(-0.0235227 0.000775277 0)
(-0.0236245 -0.000396083 0)
(-0.0230417 -0.00157672 0)
(-0.0217774 -0.00273715 0)
(-0.0198521 -0.00384378 0)
(-0.0173073 -0.00485643 0)
(-0.0142109 -0.00571955 0)
(-0.0106633 -0.00632957 0)
(-0.0068287 -0.00643824 0)
(-0.00316582 -0.00547619 0)
(-0.000732664 -0.00256613 0)
(-0.000783096 0.00420599 0)
(-0.00339328 0.00858516 0)
(-0.00731661 0.00999916 0)
(-0.0114134 0.00987794 0)
(-0.0152256 0.00905199 0)
(-0.018604 0.00786055 0)
(-0.0214494 0.00643091 0)
(-0.0236853 0.00482385 0)
(-0.0252547 0.00308259 0)
(-0.0261163 0.00124619 0)
(-0.0262423 -0.000646313 0)
(-0.0256182 -0.00255356 0)
(-0.0242442 -0.00442956 0)
(-0.0221378 -0.00622118 0)
(-0.0193382 -0.00786384 0)
(-0.0159143 -0.00926752 0)
(-0.0119709 -0.0102668 0)
(-0.0076827 -0.0104753 0)
(-0.00356059 -0.00901222 0)
(-0.000820079 -0.00440845 0)
(-0.000856592 0.00613447 0)
(-0.00373012 0.0122851 0)
(-0.00805555 0.0142133 0)
(-0.0125582 0.014002 0)
(-0.016733 0.0128117 0)
(-0.020422 0.0111134 0)
(-0.023524 0.00908549 0)
(-0.0259619 0.00681379 0)
(-0.0276798 0.00435864 0)
(-0.0286363 0.00177313 0)
(-0.0288023 -0.000890936 0)
(-0.0281596 -0.00357904 0)
(-0.0267021 -0.00622996 0)
(-0.0244395 -0.00877138 0)
(-0.0214037 -0.0111129 0)
(-0.0176589 -0.0131263 0)
(-0.0133118 -0.0145761 0)
(-0.00855238 -0.0149196 0)
(-0.00395695 -0.0129189 0)
(-0.000906234 -0.00643256 0)
(-0.000952518 0.00825609 0)
(-0.00415461 0.0163719 0)
(-0.00897331 0.0188612 0)
(-0.0139737 0.0185358 0)
(-0.0185909 0.0169313 0)
(-0.0226558 0.0146688 0)
(-0.0260655 0.0119842 0)
(-0.0287454 0.00899116 0)
(-0.0306431 0.00576705 0)
(-0.0317196 0.00237728 0)
(-0.0319449 -0.00111636 0)
(-0.0312956 -0.00464946 0)
(-0.0297559 -0.00814848 0)
(-0.0273225 -0.0115233 0)
(-0.0240128 -0.0146565 0)
(-0.0198808 -0.0173753 0)
(-0.0150318 -0.0193606 0)
(-0.00967581 -0.0198842 0)
(-0.00447638 -0.0172931 0)
(-0.00102254 -0.00868809 0)
(-0.00108177 0.0106391 0)
(-0.0047142 0.020964 0)
(-0.0101675 0.0240697 0)
(-0.0158005 0.023595 0)
(-0.0209719 0.021508 0)
(-0.0255003 0.0186041 0)
(-0.0292842 0.0151873 0)
(-0.0322561 0.0114021 0)
(-0.0343719 0.00734285 0)
(-0.0355986 0.00308437 0)
(-0.0359067 -0.00130629 0)
(-0.0352667 -0.00576052 0)
(-0.0336488 -0.0101978 0)
(-0.0310288 -0.0145137 0)
(-0.0274002 -0.0185632 0)
(-0.0227955 -0.0221212 0)
(-0.0173113 -0.0247649 0)
(-0.0111797 -0.0255386 0)
(-0.00518006 -0.0222953 0)
(-0.00118271 -0.0112646 0)
(-0.00125294 0.0133681 0)
(-0.00544546 0.0262103 0)
(-0.0117112 0.0299929 0)
(-0.018139 0.0293133 0)
(-0.0239911 0.0266476 0)
(-0.029075 0.022999 0)
(-0.0332981 0.0187532 0)
(-0.0366079 0.0140903 0)
(-0.038977 0.00912046 0)
(-0.0403847 0.00392312 0)
(-0.0408053 -0.00143705 0)
(-0.0402024 -0.00689637 0)
(-0.0385271 -0.0123767 0)
(-0.0357239 -0.0177667 0)
(-0.0317464 -0.0228956 0)
(-0.0265874 -0.0274779 0)
(-0.0203181 -0.0309595 0)
(-0.0131882 -0.0320967 0)
(-0.0061298 -0.0281362 0)
(-0.00140075 -0.0142768 0)
(-0.00147832 0.0165488 0)
(-0.00639645 0.0322978 0)
(-0.0136952 0.0368175 0)
(-0.0211073 0.035843 0)
(-0.0277749 0.0324613 0)
(-0.0335013 0.0279294 0)
(-0.0382156 0.0227326 0)
(-0.0418955 0.0170919 0)
(-0.0445429 0.0111306 0)
(-0.0461594 0.00492503 0)
(-0.0467294 -0.00147414 0)
(-0.04621 -0.00802236 0)
(-0.0445272 -0.0146592 0)
(-0.0415804 -0.0212804 0)
(-0.0372602 -0.0276977 0)
(-0.0314886 -0.0335588 0)
(-0.0242783 -0.0381429 0)
(-0.0158788 -0.0398308 0)
(-0.0074187 -0.0350967 0)
(-0.00169898 -0.0178778 0)
(-0.00177824 0.0203201 0)
(-0.00764189 0.0394653 0)
(-0.0162531 0.0447697 0)
(-0.0248708 0.0433536 0)
(-0.0324905 0.0390584 0)
(-0.0389286 0.0334572 0)
(-0.04416 0.0271577 0)
(-0.0482152 0.0204261 0)
(-0.0511457 0.0133942 0)
(-0.0529906 0.00612256 0)
(-0.0537538 -0.00136876 0)
(-0.0533893 -0.00907529 0)
(-0.0517928 -0.0169783 0)
(-0.0488015 -0.0250055 0)
(-0.044211 -0.0329708 0)
(-0.0378232 -0.0404575 0)
(-0.029531 -0.0465376 0)
(-0.0195351 -0.0490913 0)
(-0.00920483 -0.0435653 0)
(-0.00211742 -0.0222846 0)
(-0.00218817 0.0248745 0)
(-0.00930432 0.0480296 0)
(-0.0195919 0.0541277 0)
(-0.0296713 0.0520295 0)
(-0.0383682 0.0465339 0)
(-0.0455486 0.0396135 0)
(-0.0512742 0.0320248 0)
(-0.0556639 0.0240814 0)
(-0.0588473 0.0159122 0)
(-0.0609222 0.00754473 0)
(-0.0619268 -0.00105527 0)
(-0.0618199 -0.00995228 0)
(-0.0604651 -0.0192044 0)
(-0.0576205 -0.0288122 0)
(-0.0529464 -0.0386335 0)
(-0.0460512 -0.0482109 0)
(-0.0366 -0.0563747 0)
(-0.0246318 -0.0603324 0)
(-0.0117746 -0.0541035 0)
(-0.00273387 -0.0278285 0)
(-0.0027733 0.0304976 0)
(-0.0115929 0.0584285 0)
(-0.0240411 0.0652372 0)
(-0.0358687 0.0620597 0)
(-0.0457264 0.0549452 0)
(-0.0536045 0.0463716 0)
(-0.0597183 0.0372698 0)
(-0.0643266 0.0279941 0)
(-0.0676753 0.0186508 0)
(-0.0699487 0.00920877 0)
(-0.0712399 -0.000451107 0)
(-0.0715273 -0.010499 0)
(-0.0706494 -0.0211175 0)
(-0.0682766 -0.032443 0)
(-0.0638923 -0.0444539 0)
(-0.0568137 -0.056724 0)
(-0.0462985 -0.0678438 0)
(-0.0319851 -0.0741363 0)
(-0.0156766 -0.0675628 0)
(-0.00371212 -0.0350659 0)
(-0.00365988 0.0376443 0)
(-0.0148776 0.0712891 0)
(-0.0301342 0.0785234 0)
(-0.0439969 0.0736099 0)
(-0.0549948 0.0642672 0)
(-0.0633855 0.0536015 0)
(-0.0696432 0.0427285 0)
(-0.0742364 0.0320177 0)
(-0.0775731 0.0215185 0)
(-0.0799557 0.0111048 0)
(-0.0815577 0.00053695 0)
(-0.0824015 -0.0105024 0)
(-0.0823247 -0.0223776 0)
(-0.0809244 -0.0354478 0)
(-0.0774864 -0.0499416 0)
(-0.0709301 -0.0656266 0)
(-0.0598391 -0.0809664 0)
(-0.0429888 -0.0912069 0)
(-0.0219884 -0.0852869 0)
(-0.00541275 -0.0450316 0)
(-0.00510187 0.0470899 0)
(-0.0198274 0.0875308 0)
(-0.0387256 0.0944774 0)
(-0.0548039 0.0867477 0)
(-0.0666782 0.0743065 0)
(-0.0751366 0.0609938 0)
(-0.0810639 0.0480763 0)
(-0.0852225 0.0358775 0)
(-0.0882285 0.0243303 0)
(-0.0905298 0.013167 0)
(-0.0924045 0.00199039 0)
(-0.0939532 -0.00970134 0)
(-0.0950622 -0.0225094 0)
(-0.0953162 -0.0371183 0)
(-0.0938478 -0.0541963 0)
(-0.0891241 -0.0740158 0)
(-0.0787297 -0.0952786 0)
(-0.0597887 -0.112175 0)
(-0.0327143 -0.109313 0)
(-0.00860052 -0.0597177 0)
(-0.00760931 0.0602379 0)
(-0.0276245 0.108495 0)
(-0.0510571 0.11356 0)
(-0.0690809 0.101269 0)
(-0.0809952 0.0845342 0)
(-0.088568 0.0679242 0)
(-0.0932847 0.0527267 0)
(-0.0962787 0.0390927 0)
(-0.0983987 0.0267441 0)
(-0.100241 0.0152128 0)
(-0.102195 0.00391396 0)
(-0.104472 -0.00785512 0)
(-0.107081 -0.0209599 0)
(-0.109722 -0.0364934 0)
(-0.111549 -0.0557881 0)
(-0.110703 -0.0801077 0)
(-0.103549 -0.109192 0)
(-0.0845051 -0.136854 0)
(-0.0507681 -0.142191 0)
(-0.0146211 -0.08275 0)
(-0.0121223 0.0797556 0)
(-0.0400722 0.135981 0)
(-0.068213 0.13579 0)
(-0.0863942 0.11621 0)
(-0.0961106 0.0936575 0)
(-0.100774 0.0731225 0)
(-0.102621 0.0555896 0)
(-0.10316 0.0407993 0)
(-0.103419 0.0281165 0)
(-0.104075 0.0168034 0)
(-0.105583 0.00607595 0)
(-0.108256 -0.00494409 0)
(-0.112289 -0.0173492 0)
(-0.117669 -0.0326451 0)
(-0.123907 -0.0529979 0)
(-0.12929 -0.0812512 0)
(-0.129273 -0.119536 0)
(-0.114921 -0.163367 0)
(-0.0773802 -0.186704 0)
(-0.024702 -0.12089 0)
(-0.0199651 0.110816 0)
(-0.0585361 0.17116 0)
(-0.0875513 0.158594 0)
(-0.0995095 0.127868 0)
(-0.101477 0.0981835 0)
(-0.0990342 0.0737337 0)
(-0.0949588 0.0544885 0)
(-0.0908561 0.0393874 0)
(-0.0876595 0.0272535 0)
(-0.0859001 0.0170312 0)
(-0.085926 0.00777145 0)
(-0.0880457 -0.00148866 0)
(-0.0926043 -0.011936 0)
(-0.0999842 -0.025346 0)
(-0.110427 -0.044692 0)
(-0.123262 -0.0748604 0)
(-0.134592 -0.122151 0)
(-0.133622 -0.187802 0)
(-0.103213 -0.244797 0)
(-0.0358643 -0.186136 0)
(-0.0310141 0.162056 0)
(-0.0770616 0.208385 0)
(-0.087595 0.169357 0)
(-0.0757946 0.125047 0)
(-0.0588358 0.0901427 0)
(-0.0424383 0.0644389 0)
(-0.0282358 0.045933 0)
(-0.0168744 0.0325342 0)
(-0.00848645 0.0225179 0)
(-0.00298534 0.014612 0)
(-0.000298804 0.00785196 0)
(-0.000502752 0.00137546 0)
(-0.00392039 -0.00584372 0)
(-0.0112367 -0.0154641 0)
(-0.0236104 -0.0307285 0)
(-0.0424839 -0.0581668 0)
(-0.0678633 -0.109192 0)
(-0.0928371 -0.195445 0)
(-0.0929406 -0.298773 0)
(-0.0298827 -0.277729 0)
(-0.0245974 0.230967 0)
(-0.0418698 0.219041 0)
(0.0194811 0.14373 0)
(0.0822383 0.0942427 0)
(0.128395 0.0629905 0)
(0.161904 0.042341 0)
(0.186625 0.0287469 0)
(0.204649 0.0197634 0)
(0.217456 0.0135994 0)
(0.226148 0.00909837 0)
(0.231425 0.00552626 0)
(0.233596 0.00233885 0)
(0.232547 -0.00103116 0)
(0.227544 -0.00550592 0)
(0.216763 -0.0131604 0)
(0.196318 -0.0292468 0)
(0.159274 -0.0663419 0)
(0.0981776 -0.146042 0)
(0.0327983 -0.272662 0)
(0.0471763 -0.314938 0)
(0.270129 0.138331 0)
(0.338098 0.119318 0)
(0.459347 0.0744855 0)
(0.549412 0.0454775 0)
(0.601718 0.028133 0)
(0.632973 0.0174703 0)
(0.65326 0.0109715 0)
(0.666912 0.0070651 0)
(0.676175 0.00467243 0)
(0.682424 0.0031259 0)
(0.686453 0.00204318 0)
(0.688652 0.00119662 0)
(0.689079 0.000416759 0)
(0.687344 -0.000503193 0)
(0.682141 -0.00200317 0)
(0.669759 -0.00530733 0)
(0.641294 -0.0141012 0)
(0.574128 -0.0380396 0)
(0.439848 -0.0963448 0)
(0.337396 -0.143677 0)
)
;

boundaryField
{
    movingWall
    {
        type            fixedValue;
        value           uniform (1 0 0);
    }
    fixedWalls
    {
        type            noSlip;
    }
    frontAndBack
    {
        type            empty;
    }
}


// ************************************************************************* //
