/*--------------------------------*- C++ -*----------------------------------*\
  =========                 |
  \\      /  F ield         | OpenFOAM: The Open Source CFD Toolbox
   \\    /   O peration     | Website:  https://openfoam.org
    \\  /    A nd           | Version:  6
     \\/     M anipulation  |
\*---------------------------------------------------------------------------*/
FoamFile
{
    version     2.0;
    format      ascii;
    class       volScalarField;
    location    "0.015";
    object      p;
}
// * * * * * * * * * * * * * * * * * * * * * * * * * * * * * * * * * * * * * //

dimensions      [0 2 -2 0 0 0 0];

internalField   nonuniform List<scalar> 
400
(
-3.32868e-08
-0.0040811
-0.00763552
-0.00862675
-0.00632563
-0.000635176
0.00815357
0.0195193
0.0328178
0.0473371
0.0623246
0.077002
0.090581
0.102287
0.111402
0.117342
0.119781
0.118832
0.115269
0.111178
0.00396838
-0.000229655
-0.00287054
-0.0030432
-0.000502853
0.00485641
0.0128591
0.0231073
0.0350681
0.0481232
0.0616005
0.074799
0.0870142
0.0975716
0.105872
0.111459
0.114126
0.113988
0.111334
0.107125
0.00768819
0.00209308
-0.000812599
-0.000852115
0.0017308
0.00695673
0.0146571
0.0244647
0.0358887
0.0483539
0.0612285
0.0738493
0.0855496
0.095693
0.103715
0.109182
0.111888
0.111859
0.108901
0.103262
0.00943237
0.00210483
-0.00157634
-0.00181752
0.000758337
0.00606684
0.0138936
0.0238459
0.0354255
0.0480593
0.0611194
0.0739443
0.0858641
0.0962307
0.104454
0.110056
0.112771
0.112514
0.108727
0.101305
0.0084564
-0.000603805
-0.00516806
-0.0056547
-0.00298558
0.00265555
0.0109897
0.0215717
0.0338678
0.0472804
0.06116
0.074821
0.0875614
0.0986883
0.107548
0.113582
0.116434
0.115914
0.111176
0.101947
0.00428304
-0.00660874
-0.012115
-0.0127904
-0.0098331
-0.0035315
0.0057517
0.0174945
0.0311043
0.0459372
0.0613019
0.0764682
0.0906782
0.103165
0.113177
0.120035
0.123264
0.122551
0.116784
0.1056
-0.00352064
-0.0165349
-0.023067
-0.0238081
-0.0202771
-0.0128955
-0.00213852
0.0113679
0.02695
0.043901
0.0614746
0.0788822
0.0952926
0.109839
0.121637
0.129841
0.133806
0.133054
0.126144
0.112634
-0.0155164
-0.0311553
-0.0388263
-0.0394287
-0.0349254
-0.0259298
-0.0130726
0.00288382
0.021165
0.0409921
0.0615603
0.0820199
0.101459
0.118894
0.133269
0.143514
0.148743
0.148219
0.140024
0.12356
-0.0325546
-0.0515461
-0.0604716
-0.0606015
-0.0545637
-0.0432625
-0.027545
-0.00834773
0.0134391
0.0369658
0.0613802
0.0857857
0.1092
0.130514
0.14847
0.161702
0.168975
0.169144
0.159529
0.139205
-0.0559566
-0.0792579
-0.0894794
-0.088569
-0.0801786
-0.0656543
-0.0461389
-0.022783
0.00340144
0.0315113
0.0606792
0.0900006
0.118457
0.144837
0.167658
0.185182
0.195679
0.197363
0.186318
0.160933
-0.0877966
-0.116555
-0.127869
-0.124924
-0.112955
-0.0939617
-0.069475
-0.0408936
-0.00933956
0.0242731
0.0591232
0.0943722
0.129043
0.161879
0.191195
0.214817
0.230346
0.235006
0.222887
0.191012
-0.131392
-0.166774
-0.178383
-0.171647
-0.154224
-0.129039
-0.098098
-0.0630565
-0.0251012
0.014921
0.0563365
0.098492
0.140584
0.181446
0.219282
0.251473
0.274786
0.28499
0.273017
0.233249
-0.192183
-0.234873
-0.244675
-0.23106
-0.205295
-0.171517
-0.132245
-0.0893356
-0.0439349
0.00330812
0.052017
0.101898
0.152527
0.203059
0.251812
0.295866
0.331073
0.351222
0.342421
0.294129
-0.279398
-0.32824
-0.331406
-0.305553
-0.267027
-0.221345
-0.171414
-0.119101
-0.065301
-0.0102574
0.0461565
0.104234
0.16421
0.225914
0.288213
0.348297
0.401327
0.438725
0.439717
0.38492
-0.409235
-0.457787
-0.443904
-0.396709
-0.338867
-0.276911
-0.213639
-0.150461
-0.0876246
-0.0246583
0.0393297
0.105481
0.175012
0.248899
0.327233
0.408197
0.487129
0.553418
0.577672
0.525491
-0.610217
-0.638774
-0.586871
-0.503611
-0.417286
-0.333826
-0.254643
-0.17971
-0.10795
-0.0377354
0.0328829
0.106137
0.184527
0.270681
0.366824
0.473639
0.588633
0.701174
0.773979
0.749992
-0.932591
-0.890299
-0.76177
-0.620895
-0.494501
-0.384221
-0.287643
-0.201476
-0.122245
-0.0466248
0.0286473
0.107037
0.192514
0.289793
0.404299
0.54138
0.704009
0.886159
1.05098
1.11596
-1.48635
-1.23431
-0.956402
-0.731023
-0.554208
-0.414983
-0.303106
-0.209277
-0.126322
-0.0488323
0.0277612
0.10801
0.197237
0.302416
0.43316
0.602102
0.822274
1.1023
1.43847
1.74526
-2.56108
-1.68088
-1.09885
-0.769108
-0.551567
-0.397824
-0.284269
-0.193793
-0.115563
-0.0428841
0.0291489
0.105185
0.190873
0.294448
0.429239
0.61654
0.885819
1.2876
1.95941
2.94009
-4.39181
-2.10338
-1.04407
-0.642469
-0.43732
-0.309632
-0.221544
-0.151933
-0.0899171
-0.0302487
0.0302447
0.0944784
0.166353
0.252485
0.365746
0.531514
0.797823
1.29261
2.46617
4.86794
)
;

boundaryField
{
    movingWall
    {
        type            zeroGradient;
    }
    fixedWalls
    {
        type            zeroGradient;
    }
    frontAndBack
    {
        type            empty;
    }
}


// ************************************************************************* //
