/*--------------------------------*- C++ -*----------------------------------*\
  =========                 |
  \\      /  F ield         | OpenFOAM: The Open Source CFD Toolbox
   \\    /   O peration     | Website:  https://openfoam.org
    \\  /    A nd           | Version:  6
     \\/     M anipulation  |
\*---------------------------------------------------------------------------*/
FoamFile
{
    version     2.0;
    format      ascii;
    class       surfaceScalarField;
    location    "0.015";
    object      phi;
}
// * * * * * * * * * * * * * * * * * * * * * * * * * * * * * * * * * * * * * //

dimensions      [0 3 -1 0 0 0 0];

internalField   nonuniform List<scalar> 
760
(
6.90669e-10
-6.90697e-10
-4.11567e-08
4.18475e-08
-1.1808e-07
7.69233e-08
-2.13309e-07
9.52289e-08
-3.12538e-07
9.92284e-08
-4.05081e-07
9.25432e-08
-4.83511e-07
7.84298e-08
-5.42948e-07
5.94369e-08
-5.80335e-07
3.73872e-08
-5.93908e-07
1.35728e-08
-5.82914e-07
-1.09939e-08
-5.47569e-07
-3.53456e-08
-4.89226e-07
-5.83431e-08
-4.10764e-07
-7.84613e-08
-3.17182e-07
-9.35824e-08
-2.1631e-07
-1.00871e-07
-1.19419e-07
-9.68914e-08
-4.13648e-08
-7.80541e-08
8.68571e-10
-4.22333e-08
8.68646e-10
-4.06897e-08
3.99992e-08
-1.64391e-07
1.65548e-07
-3.51625e-07
2.64158e-07
-5.73539e-07
3.17143e-07
-8.02439e-07
3.28128e-07
-1.01582e-06
3.05929e-07
-1.19705e-06
2.59656e-07
-1.33462e-06
1.97006e-07
-1.42109e-06
1.23854e-07
-1.45213e-06
4.46162e-08
-1.42601e-06
-3.71135e-08
-1.34347e-06
-1.1789e-07
-1.20805e-06
-1.93759e-07
-1.02687e-06
-2.59641e-07
-8.11631e-07
-3.08821e-07
-5.79706e-07
-3.32796e-07
-3.54644e-07
-3.21953e-07
-1.65136e-07
-2.67562e-07
-4.05496e-08
-1.66819e-07
-3.96812e-08
-7.78971e-08
1.17896e-07
-2.73454e-07
3.61105e-07
-5.49456e-07
5.40159e-07
-8.66881e-07
6.34568e-07
-1.18982e-06
6.51073e-07
-1.48893e-06
6.05035e-07
-1.74216e-06
5.12886e-07
-1.93406e-06
3.88902e-07
-2.0545e-06
2.44302e-07
-2.09761e-06
8.77238e-08
-2.06103e-06
-7.37008e-08
-1.94579e-06
-2.33122e-07
-1.7568e-06
-3.82752e-07
-1.5037e-06
-5.12745e-07
-1.20218e-06
-6.10339e-07
-8.75218e-07
-6.59758e-07
-5.53554e-07
-6.43617e-07
-2.74463e-07
-5.46653e-07
-7.77127e-08
-3.6357e-07
-1.17394e-07
-1.06017e-07
2.23913e-07
-3.62573e-07
6.17661e-07
-7.14998e-07
8.92585e-07
-1.11297e-06
1.03254e-06
-1.51304e-06
1.05115e-06
-1.88068e-06
9.72673e-07
-2.19034e-06
8.22545e-07
-2.42428e-06
6.2284e-07
-2.57096e-06
3.90983e-07
-2.62367e-06
1.40432e-07
-2.57966e-06
-1.17708e-07
-2.44e-06
-3.72784e-07
-2.21007e-06
-6.12684e-07
-1.90074e-06
-8.22067e-07
-1.53001e-06
-9.81078e-07
-1.12455e-06
-1.06521e-06
-7.20746e-07
-1.04742e-06
-3.6396e-07
-9.03438e-07
-1.05678e-07
-6.21852e-07
-2.23072e-07
-1.29574e-07
3.53487e-07
-4.41949e-07
9.30036e-07
-8.66448e-07
1.31708e-06
-1.34043e-06
1.50652e-06
-1.81226e-06
1.52297e-06
-2.24241e-06
1.40282e-06
-2.6026e-06
1.18273e-06
-2.87374e-06
8.93982e-07
-3.04372e-06
5.60968e-07
-3.10555e-06
2.02257e-07
-3.0562e-06
-1.67056e-07
-2.89642e-06
-5.32564e-07
-2.63137e-06
-8.77736e-07
-2.27215e-06
-1.18129e-06
-1.83798e-06
-1.41525e-06
-1.35859e-06
-1.5446e-06
-8.76009e-07
-1.53e-06
-4.44708e-07
-1.33474e-06
-1.29292e-07
-9.37268e-07
-3.52364e-07
-1.53297e-07
5.06784e-07
-5.23917e-07
1.30066e-06
-1.02469e-06
1.81785e-06
-1.57897e-06
2.06081e-06
-2.12567e-06
2.06967e-06
-2.61989e-06
1.89704e-06
-3.03094e-06
1.59378e-06
-3.33915e-06
1.20219e-06
-3.53256e-06
7.54379e-07
-3.60436e-06
2.74057e-07
-3.55135e-06
-2.20066e-07
-3.37358e-06
-7.10339e-07
-3.0752e-06
-1.17612e-06
-2.66654e-06
-1.58994e-06
-2.16721e-06
-1.91458e-06
-1.60962e-06
-2.10219e-06
-1.04211e-06
-2.0975e-06
-5.30086e-07
-1.84677e-06
-1.53597e-07
-1.31376e-06
-5.05961e-07
-1.81393e-07
6.88177e-07
-6.20425e-07
1.73969e-06
-1.20998e-06
2.4074e-06
-1.85634e-06
2.70717e-06
-2.48715e-06
2.70048e-06
-3.05168e-06
2.46157e-06
-3.51737e-06
2.05947e-06
-3.86486e-06
1.54969e-06
-4.08333e-06
9.72841e-07
-4.16677e-06
3.57503e-07
-4.11193e-06
-2.74905e-07
-3.9177e-06
-9.04568e-07
-3.58625e-06
-1.50757e-06
-3.12582e-06
-2.05038e-06
-2.55511e-06
-2.4853e-06
-1.90864e-06
-2.74866e-06
-1.2418e-06
-2.76434e-06
-6.33438e-07
-2.45513e-06
-1.83215e-07
-1.76398e-06
-6.89176e-07
-2.17904e-07
9.0608e-07
-7.43192e-07
2.26498e-06
-1.44176e-06
3.10597e-06
-2.19792e-06
3.46333e-06
-2.92577e-06
3.42833e-06
-3.56865e-06
3.10446e-06
-4.09327e-06
2.58409e-06
-4.48225e-06
1.93867e-06
-4.72734e-06
1.21793e-06
-4.82437e-06
4.54525e-07
-4.77024e-06
-3.29032e-07
-4.56215e-06
-1.11266e-06
-4.1989e-06
-1.87081e-06
-3.68468e-06
-2.5646e-06
-3.03512e-06
-3.13486e-06
-2.28532e-06
-3.49845e-06
-1.49798e-06
-3.55169e-06
-7.68543e-07
-3.18457e-06
-2.22835e-07
-2.30969e-06
-9.1201e-07
-2.67317e-07
1.1734e-06
-9.04736e-07
2.9024e-06
-1.73955e-06
3.94079e-06
-2.62702e-06
4.3508e-06
-3.46537e-06
4.26668e-06
-4.19285e-06
3.83194e-06
-4.77785e-06
3.16909e-06
-5.2077e-06
2.36852e-06
-5.47908e-06
1.48931e-06
-5.59112e-06
5.66564e-07
-5.54143e-06
-3.78726e-07
-5.32485e-06
-1.32924e-06
-4.93501e-06
-2.26064e-06
-4.36909e-06
-3.13052e-06
-3.63607e-06
-3.86788e-06
-2.76838e-06
-4.36614e-06
-1.83489e-06
-4.48518e-06
-9.50962e-07
-4.06849e-06
-2.77991e-07
-2.98266e-06
-1.19e-06
-3.3539e-07
1.50879e-06
-1.11962e-06
3.68663e-06
-2.12353e-06
4.94469e-06
-3.16406e-06
5.39134e-06
-4.12199e-06
5.2246e-06
-4.93331e-06
4.64326e-06
-5.57258e-06
3.80835e-06
-6.03617e-06
2.83211e-06
-6.32907e-06
1.78222e-06
-6.4559e-06
6.93398e-07
-6.41581e-06
-4.18818e-07
-6.20071e-06
-1.54434e-06
-5.79686e-06
-2.6645e-06
-5.19042e-06
-3.73696e-06
-4.37817e-06
-4.68013e-06
-3.38383e-06
-5.36049e-06
-2.27847e-06
-5.59054e-06
-1.19946e-06
-5.14751e-06
-3.56055e-07
-3.82606e-06
-1.54606e-06
-4.30095e-07
1.93888e-06
-1.40518e-06
4.66172e-06
-2.61303e-06
6.15254e-06
-3.82175e-06
6.60005e-06
-4.89574e-06
6.29859e-06
-5.77524e-06
5.52277e-06
-6.44841e-06
4.48152e-06
-6.92698e-06
3.31069e-06
-7.22877e-06
2.084e-06
-7.36664e-06
8.31274e-07
-7.34255e-06
-4.42905e-07
-7.14521e-06
-1.74168e-06
-6.75126e-06
-3.05845e-06
-6.1311e-06
-4.35712e-06
-5.26153e-06
-5.5497e-06
-4.1476e-06
-6.47442e-06
-2.85342e-06
-6.88472e-06
-1.53635e-06
-6.46458e-06
-4.67304e-07
-4.89511e-06
-2.01336e-06
-5.62697e-07
2.50158e-06
-1.78068e-06
5.8797e-06
-3.22069e-06
7.59256e-06
-4.59302e-06
7.97238e-06
-5.75331e-06
7.45888e-06
-6.65859e-06
6.42805e-06
-7.32198e-06
5.14491e-06
-7.77873e-06
3.76743e-06
-8.06456e-06
2.36984e-06
-8.20359e-06
9.70307e-07
-8.20217e-06
-4.44334e-07
-8.04616e-06
-1.89768e-06
-7.70124e-06
-3.40337e-06
-7.11749e-06
-4.94087e-06
-6.24254e-06
-6.42465e-06
-5.04805e-06
-7.6689e-06
-3.57372e-06
-8.35906e-06
-1.98529e-06
-8.053e-06
-6.25906e-07
-6.25449e-06
-2.63927e-06
-7.49036e-07
3.25062e-06
-2.26341e-06
7.39407e-06
-3.93835e-06
9.2675e-06
-5.42678e-06
9.46081e-06
-6.59629e-06
8.62839e-06
-7.44229e-06
7.27404e-06
-8.01825e-06
5.72087e-06
-8.39165e-06
4.14084e-06
-8.62033e-06
2.59852e-06
-8.74164e-06
1.09161e-06
-8.76778e-06
-4.1819e-07
-8.68337e-06
-1.98209e-06
-8.44394e-06
-3.64281e-06
-7.97735e-06
-5.40746e-06
-7.19369e-06
-7.20831e-06
-6.01293e-06
-8.84966e-06
-4.42154e-06
-9.95045e-06
-2.56382e-06
-9.91072e-06
-8.50689e-07
-7.96762e-06
-3.48996e-06
-1.01117e-06
4.26179e-06
-2.85858e-06
9.24148e-06
-4.70881e-06
1.11177e-05
-6.18505e-06
1.09371e-05
-7.21089e-06
9.65423e-06
-7.85258e-06
7.91573e-06
-8.22094e-06
6.08923e-06
-8.42139e-06
4.34129e-06
-8.53395e-06
2.71108e-06
-8.6081e-06
1.16575e-06
-8.66229e-06
-3.63997e-07
-8.68283e-06
-1.96155e-06
-8.62016e-06
-3.70547e-06
-8.3843e-06
-5.64332e-06
-7.84579e-06
-7.74682e-06
-6.85596e-06
-9.83949e-06
-5.30835e-06
-1.14981e-05
-3.26634e-06
-1.19527e-05
-1.16511e-06
-1.00688e-05
-4.65506e-06
-1.37769e-06
5.63947e-06
-3.53443e-06
1.13982e-05
-5.37198e-06
1.29553e-05
-6.5737e-06
1.21388e-05
-7.19766e-06
1.02782e-05
-7.42058e-06
8.13865e-06
-7.42105e-06
6.0897e-06
-7.33779e-06
4.25803e-06
-7.26391e-06
2.6372e-06
-7.25373e-06
1.15558e-06
-7.32971e-06
-2.88026e-07
-7.48397e-06
-1.80729e-06
-7.67263e-06
-3.51681e-06
-7.80312e-06
-5.51283e-06
-7.71953e-06
-7.83041e-06
-7.20132e-06
-1.03577e-05
-6.00838e-06
-1.2691e-05
-4.02686e-06
-1.39343e-05
-1.59279e-06
-1.25029e-05
-6.24785e-06
-1.87061e-06
7.51008e-06
-4.15529e-06
1.36829e-05
-5.56031e-06
1.43603e-05
-6.03591e-06
1.26144e-05
-5.88664e-06
1.01289e-05
-5.42653e-06
7.67854e-06
-4.88792e-06
5.5511e-06
-4.41674e-06
3.78685e-06
-4.09542e-06
2.31587e-06
-3.96715e-06
1.02731e-06
-4.05192e-06
-2.03257e-07
-4.35184e-06
-1.50737e-06
-4.84478e-06
-3.02387e-06
-5.46444e-06
-4.89318e-06
-6.06644e-06
-7.22841e-06
-6.38979e-06
-1.00343e-05
-6.04827e-06
-1.30325e-05
-4.6335e-06
-1.5349e-05
-2.13199e-06
-1.50044e-05
-8.37984e-06
-2.43736e-06
9.94743e-06
-4.29963e-06
1.55452e-05
-4.49157e-06
1.45522e-05
-3.59554e-06
1.17183e-05
-2.25487e-06
8.78824e-06
-8.83575e-07
6.30725e-06
2.98792e-07
4.36873e-06
1.19658e-06
2.88906e-06
1.77754e-06
1.73491e-06
2.03275e-06
7.72109e-07
1.95479e-06
-1.25298e-07
1.52966e-06
-1.08225e-06
7.4106e-07
-2.23527e-06
-4.08852e-07
-3.74326e-06
-1.85303e-06
-5.78424e-06
-3.37963e-06
-8.50774e-06
-4.52948e-06
-1.18827e-05
-4.53833e-06
-1.53402e-05
-2.66362e-06
-1.68791e-05
-1.10435e-05
-2.71399e-06
1.26614e-05
-2.78765e-06
1.56188e-05
-5.58667e-07
1.23233e-05
2.36321e-06
8.79647e-06
5.12011e-06
6.03134e-06
7.3924e-06
4.03496e-06
9.1141e-06
2.64703e-06
1.03208e-05
1.68236e-06
1.10711e-05
9.84573e-07
1.14094e-05
4.33884e-07
1.13492e-05
-6.51807e-08
1.08676e-05
-6.0059e-07
9.90351e-06
-1.27118e-06
8.3677e-06
-2.20746e-06
6.17679e-06
-3.59333e-06
3.34257e-06
-5.67352e-06
1.61042e-07
-8.70115e-06
-2.44895e-06
-1.27302e-05
-2.69784e-06
-1.66303e-05
-1.37413e-05
-9.05925e-07
1.35673e-05
3.72734e-06
1.09856e-05
9.46329e-06
6.58731e-06
1.43108e-05
3.94898e-06
1.79505e-05
2.39163e-06
2.05342e-05
1.45124e-06
2.22992e-05
8.82051e-07
2.34519e-05
5.29679e-07
2.41389e-05
2.97564e-07
2.44465e-05
1.26234e-07
2.44055e-05
-2.41913e-08
2.3992e-05
-1.87092e-07
2.31217e-05
-4.00864e-07
2.16375e-05
-7.23247e-07
1.92981e-05
-1.25391e-06
1.57957e-05
-2.17116e-06
1.08856e-05
-3.79102e-06
4.82455e-06
-6.66913e-06
-3.72366e-07
-1.14333e-05
-1.41137e-05
1.35673e-05
2.45529e-05
3.11402e-05
3.50892e-05
3.74808e-05
3.89321e-05
3.98141e-05
4.03438e-05
4.06414e-05
4.07676e-05
4.07434e-05
4.05563e-05
4.01555e-05
3.94322e-05
3.81783e-05
3.60072e-05
3.22161e-05
2.5547e-05
1.41137e-05
)
;

boundaryField
{
    movingWall
    {
        type            calculated;
        value           uniform 0;
    }
    fixedWalls
    {
        type            calculated;
        value           uniform 0;
    }
    frontAndBack
    {
        type            empty;
        value           nonuniform 0();
    }
}


// ************************************************************************* //
