/*--------------------------------*- C++ -*----------------------------------*\
  =========                 |
  \\      /  F ield         | OpenFOAM: The Open Source CFD Toolbox
   \\    /   O peration     | Website:  https://openfoam.org
    \\  /    A nd           | Version:  6
     \\/     M anipulation  |
\*---------------------------------------------------------------------------*/
FoamFile
{
    version     2.0;
    format      ascii;
    class       volVectorField;
    location    "0.015";
    object      U;
}
// * * * * * * * * * * * * * * * * * * * * * * * * * * * * * * * * * * * * * //

dimensions      [0 1 -1 0 0 0 0];

internalField   nonuniform List<vector> 
400
(
(8.23406e-05 -8.31415e-05 0)
(-0.00025944 0.000246625 0)
(-0.00148781 0.000541439 0)
(-0.00327049 0.000695171 0)
(-0.00526575 0.000730533 0)
(-0.00722068 0.000681675 0)
(-0.00895632 0.000576873 0)
(-0.010352 0.000436764 0)
(-0.0113306 0.000275158 0)
(-0.0118455 0.000101204 0)
(-0.0118723 -7.82881e-05 0)
(-0.0114052 -0.000256841 0)
(-0.0104591 -0.000426558 0)
(-0.00907421 -0.000576315 0)
(-0.00732697 -0.000689793 0)
(-0.00534355 -0.000743895 0)
(-0.00331335 -0.000708831 0)
(-0.00150067 -0.000550834 0)
(-0.000257068 -0.000250396 0)
(8.63831e-05 8.40686e-05 0)
(-0.000231119 0.000242066 0)
(-0.00171274 0.00172329 0)
(-0.0049188 0.00294739 0)
(-0.00916009 0.00360724 0)
(-0.0137871 0.00375403 0)
(-0.0182989 0.00350508 0)
(-0.0223089 0.00297507 0)
(-0.0255397 0.00225722 0)
(-0.0278065 0.00142038 0)
(-0.0289952 0.000514733 0)
(-0.0290465 -0.000419666 0)
(-0.0279502 -0.00134448 0)
(-0.0257466 -0.00221517 0)
(-0.0225381 -0.00297324 0)
(-0.018508 -0.00353942 0)
(-0.0139437 -0.00381038 0)
(-0.00925061 -0.00366525 0)
(-0.00495157 -0.00298792 0)
(-0.00171268 -0.00173807 0)
(-0.000226158 -0.000236916 0)
(-0.000529346 0.00144369 0)
(-0.00304166 0.00494684 0)
(-0.00790682 0.0076257 0)
(-0.0140553 0.00906376 0)
(-0.0206205 0.00934754 0)
(-0.0269615 0.00870756 0)
(-0.0325725 0.00739015 0)
(-0.0370831 0.00560759 0)
(-0.0402432 0.00352492 0)
(-0.0418975 0.00126806 0)
(-0.0419656 -0.00105954 0)
(-0.0404339 -0.00335855 0)
(-0.0373582 -0.00551568 0)
(-0.0328785 -0.00738693 0)
(-0.027242 -0.00878434 0)
(-0.0208317 -0.00947356 0)
(-0.0141778 -0.0091945 0)
(-0.0079511 -0.00771868 0)
(-0.003042 -0.00498141 0)
(-0.000523616 -0.00143569 0)
(-0.000743498 0.00330845 0)
(-0.00409768 0.00952198 0)
(-0.010392 0.0139805 0)
(-0.0181687 0.016301 0)
(-0.0263444 0.0166684 0)
(-0.0341635 0.015465 0)
(-0.0410388 0.0130995 0)
(-0.0465434 0.00992884 0)
(-0.0503918 0.00623555 0)
(-0.0524073 0.00223833 0)
(-0.0524981 -0.00188167 0)
(-0.0506465 -0.00595039 0)
(-0.0469129 -0.00977036 0)
(-0.0414528 -0.0130926 0)
(-0.0345469 -0.0155962 0)
(-0.0266363 -0.016886 0)
(-0.0183399 -0.016529 0)
(-0.0104542 -0.0141445 0)
(-0.00409718 -0.00958337 0)
(-0.000734933 -0.00329399 0)
(-0.000911446 0.00567133 0)
(-0.00501062 0.0152198 0)
(-0.0126412 0.0217553 0)
(-0.0219592 0.0250269 0)
(-0.0316462 0.0253979 0)
(-0.0408264 0.0234577 0)
(-0.048842 0.0198143 0)
(-0.0552283 0.0149939 0)
(-0.0596837 0.00941056 0)
(-0.0620246 0.00338375 0)
(-0.0621545 -0.00282385 0)
(-0.0600497 -0.00896054 0)
(-0.0557639 -0.0147395 0)
(-0.0494501 -0.0197964 0)
(-0.0414006 -0.0236583 0)
(-0.032096 -0.0257398 0)
(-0.0222352 -0.0253918 0)
(-0.012752 -0.0220235 0)
(-0.0050189 -0.0153236 0)
(-0.000900655 -0.00564895 0)
(-0.00107541 0.00848941 0)
(-0.00594155 0.0220202 0)
(-0.0149808 0.0309682 0)
(-0.0259324 0.0352701 0)
(-0.0372083 0.0355516 0)
(-0.0477955 0.0326802 0)
(-0.056967 0.0275145 0)
(-0.0642333 0.0207806 0)
(-0.0692923 0.0130395 0)
(-0.0719669 0.00471428 0)
(-0.0721619 -0.00385425 0)
(-0.0698448 -0.0123421 0)
(-0.0650504 -0.0203751 0)
(-0.0579106 -0.0274666 0)
(-0.0487086 -0.0329703 0)
(-0.0379498 -0.0360708 0)
(-0.026415 -0.0358421 0)
(-0.0152001 -0.0314049 0)
(-0.00598059 -0.0222039 0)
(-0.00106539 -0.0084639 0)
(-0.00127123 0.0118097 0)
(-0.00704286 0.0300538 0)
(-0.0177317 0.0417956 0)
(-0.0305735 0.0472068 0)
(-0.0436539 0.0472729 0)
(-0.0558023 0.0432321 0)
(-0.0662257 0.0362611 0)
(-0.0744267 0.027326 0)
(-0.0801235 0.0171503 0)
(-0.0831627 0.00625883 0)
(-0.0834588 -0.00494147 0)
(-0.0809667 -0.0160692 0)
(-0.0756875 -0.0266734 0)
(-0.0677075 -0.0361429 0)
(-0.0572727 -0.0436344 0)
(-0.0448914 -0.0480489 0)
(-0.031424 -0.0481004 0)
(-0.0181587 -0.0425151 0)
(-0.00715125 -0.0303937 0)
(-0.00126797 -0.0117998 0)
(-0.00153276 0.0157594 0)
(-0.00846417 0.0396003 0)
(-0.0212086 0.0545675 0)
(-0.0363407 0.061139 0)
(-0.0515376 0.060795 0)
(-0.0654534 0.0552698 0)
(-0.0772447 0.0461481 0)
(-0.0864374 0.0346854 0)
(-0.0928037 0.0217822 0)
(-0.0962395 0.00805603 0)
(-0.0966819 -0.00604418 0)
(-0.0940707 -0.0201081 0)
(-0.0883538 -0.0336312 0)
(-0.0795367 -0.0458841 0)
(-0.0677839 -0.0558026 0)
(-0.0535656 -0.0619379 0)
(-0.0378014 -0.0625294 0)
(-0.021999 -0.0557582 0)
(-0.00870594 -0.040234 0)
(-0.00154725 -0.0158081 0)
(-0.001899 0.020549 0)
(-0.010371 0.0510948 0)
(-0.025741 0.069763 0)
(-0.0436791 0.0774713 0)
(-0.0613454 0.0763994 0)
(-0.0772161 0.0689557 0)
(-0.0904389 0.0572514 0)
(-0.100619 0.0428893 0)
(-0.107636 0.0269576 0)
(-0.111474 0.0101437 0)
(-0.112115 -0.00710193 0)
(-0.109481 -0.0243878 0)
(-0.103444 -0.0411985 0)
(-0.0938786 -0.0567092 0)
(-0.0808003 -0.0696183 0)
(-0.0645658 -0.0780489 0)
(-0.0460986 -0.0796114 0)
(-0.0271317 -0.0717195 0)
(-0.01085 -0.0522558 0)
(-0.00195099 -0.0207396 0)
(-0.00242418 0.0264892 0)
(-0.0129696 0.0651414 0)
(-0.0316965 0.087994 0)
(-0.0530193 0.0966598 0)
(-0.0734593 0.0943413 0)
(-0.0913485 0.0843749 0)
(-0.105912 0.0695505 0)
(-0.116928 0.0518807 0)
(-0.124462 0.0326388 0)
(-0.128646 0.0125404 0)
(-0.129533 -0.00802697 0)
(-0.127035 -0.0287644 0)
(-0.120918 -0.0492163 0)
(-0.110865 -0.0685135 0)
(-0.0966443 -0.0851201 0)
(-0.0783753 -0.0966512 0)
(-0.056867 -0.0998888 0)
(-0.0340305 -0.0911524 0)
(-0.0138493 -0.0672049 0)
(-0.00254831 -0.0269719 0)
(-0.00319136 0.0340263 0)
(-0.0165325 0.0825312 0)
(-0.0394797 0.109964 0)
(-0.0647181 0.119117 0)
(-0.0880271 0.114726 0)
(-0.107706 0.101409 0)
(-0.123215 0.0828176 0)
(-0.13465 0.0614274 0)
(-0.142371 0.0386696 0)
(-0.146727 0.0152158 0)
(-0.147886 -0.00870267 0)
(-0.145755 -0.0329843 0)
(-0.139975 -0.057341 0)
(-0.129971 -0.0809535 0)
(-0.115138 -0.102098 0)
(-0.0951745 -0.117823 0)
(-0.0705574 -0.123846 0)
(-0.0432153 -0.114929 0)
(-0.0180563 -0.0860713 0)
(-0.00344603 -0.0350578 0)
(-0.00433232 0.0437992 0)
(-0.0214175 0.104246 0)
(-0.0494752 0.136366 0)
(-0.078878 0.145031 0)
(-0.10466 0.1373 0)
(-0.125346 0.119542 0)
(-0.140893 0.096459 0)
(-0.151911 0.071005 0)
(-0.159184 0.0446946 0)
(-0.163355 0.0180451 0)
(-0.164747 -0.00899404 0)
(-0.163289 -0.0366538 0)
(-0.158485 -0.064962 0)
(-0.149453 -0.0933016 0)
(-0.135084 -0.119883 0)
(-0.114417 -0.141199 0)
(-0.0872435 -0.151672 0)
(-0.0551449 -0.143897 0)
(-0.0239207 -0.110088 0)
(-0.00481106 -0.0457973 0)
(-0.00605897 0.0567245 0)
(-0.0280712 0.131404 0)
(-0.0618784 0.16763 0)
(-0.0949552 0.174016 0)
(-0.121857 0.161111 0)
(-0.141836 0.137579 0)
(-0.155738 0.109309 0)
(-0.164919 0.0796556 0)
(-0.170705 0.0500677 0)
(-0.174083 0.0207504 0)
(-0.175563 -0.00877647 0)
(-0.175121 -0.0392292 0)
(-0.172161 -0.0711298 0)
(-0.165492 -0.104282 0)
(-0.15342 -0.137066 0)
(-0.13407 -0.165576 0)
(-0.106062 -0.182822 0)
(-0.0699391 -0.178536 0)
(-0.0319609 -0.140629 0)
(-0.00690217 -0.0603336 0)
(-0.0087129 0.074112 0)
(-0.0369916 0.165044 0)
(-0.0763148 0.203408 0)
(-0.111018 0.20452 0)
(-0.136038 0.183995 0)
(-0.152214 0.153287 0)
(-0.161771 0.119408 0)
(-0.167009 0.0858643 0)
(-0.16983 0.0537791 0)
(-0.171535 0.0228486 0)
(-0.172806 -0.00798286 0)
(-0.173699 -0.0400493 0)
(-0.173603 -0.07454 0)
(-0.171133 -0.111944 0)
(-0.164065 -0.151185 0)
(-0.149467 -0.188373 0)
(-0.124239 -0.215293 0)
(-0.0868039 -0.218262 0)
(-0.042644 -0.178874 0)
(-0.0101093 -0.0802574 0)
(-0.0128147 0.0977917 0)
(-0.0485396 0.205576 0)
(-0.09102 0.241603 0)
(-0.122443 0.232912 0)
(-0.140095 0.201961 0)
(-0.147634 0.163075 0)
(-0.149098 0.1239 0)
(-0.147726 0.0875616 0)
(-0.145813 0.0544847 0)
(-0.144797 0.0236517 0)
(-0.145422 -0.00665634 0)
(-0.147841 -0.0384392 0)
(-0.151578 -0.0736488 0)
(-0.155333 -0.113701 0)
(-0.15668 -0.158555 0)
(-0.151813 -0.205083 0)
(-0.135581 -0.244636 0)
(-0.102922 -0.260214 0)
(-0.0560058 -0.224988 0)
(-0.0149536 -0.107656 0)
(-0.0189426 0.130309 0)
(-0.0621546 0.251557 0)
(-0.100989 0.276708 0)
(-0.119653 0.25231 0)
(-0.12141 0.208686 0)
(-0.113963 0.161984 0)
(-0.103096 0.119268 0)
(-0.0924853 0.082427 0)
(-0.0842841 0.0507542 0)
(-0.0796526 0.0223953 0)
(-0.079171 -0.00497665 0)
(-0.0830599 -0.0339022 0)
(-0.0911758 -0.0670061 0)
(-0.102753 -0.106718 0)
(-0.115867 -0.154491 0)
(-0.126637 -0.20902 0)
(-0.128294 -0.262888 0)
(-0.111307 -0.297417 0)
(-0.0704657 -0.27653 0)
(-0.0217999 -0.145143 0)
(-0.0267359 0.175601 0)
(-0.0736439 0.297138 0)
(-0.0937255 0.296944 0)
(-0.0842568 0.251168 0)
(-0.0594574 0.195451 0)
(-0.0308817 0.144336 0)
(-0.00466143 0.102178 0)
(0.0163997 0.0686397 0)
(0.0312583 0.0416169 0)
(0.0396416 0.0185391 0)
(0.041454 -0.00322745 0)
(0.0364921 -0.0263851 0)
(0.0244024 -0.0538443 0)
(0.00490287 -0.0887756 0)
(-0.0215913 -0.134246 0)
(-0.052719 -0.191779 0)
(-0.0820943 -0.257734 0)
(-0.0967776 -0.316172 0)
(-0.0795911 -0.32552 0)
(-0.0294428 -0.196156 0)
(-0.0300509 0.236765 0)
(-0.066758 0.325294 0)
(-0.039855 0.280648 0)
(0.0172647 0.213509 0)
(0.0765854 0.153276 0)
(0.127587 0.106186 0)
(0.167534 0.071523 0)
(0.196586 0.0463382 0)
(0.215911 0.0274873 0)
(0.226652 0.0122481 0)
(0.229441 -0.00172419 0)
(0.224199 -0.0166722 0)
(0.210072 -0.03509 0)
(0.18547 -0.0600906 0)
(0.148449 -0.0956353 0)
(0.0978046 -0.146104 0)
(0.0353526 -0.214003 0)
(-0.0286747 -0.29359 0)
(-0.0639272 -0.351104 0)
(-0.029554 -0.260694 0)
(0.00943863 0.281415 0)
(0.018178 0.291532 0)
(0.128032 0.203216 0)
(0.241751 0.132559 0)
(0.327665 0.0849022 0)
(0.388889 0.0537705 0)
(0.431419 0.0337601 0)
(0.459878 0.0207618 0)
(0.477782 0.0118895 0)
(0.487469 0.00519452 0)
(0.490104 -0.000728364 0)
(0.485767 -0.00710323 0)
(0.473404 -0.0153244 0)
(0.450636 -0.027381 0)
(0.413536 -0.0464378 0)
(0.356544 -0.0775311 0)
(0.272122 -0.128014 0)
(0.15471 -0.206304 0)
(0.0358491 -0.304897 0)
(0.019011 -0.297324 0)
(0.301553 0.146101 0)
(0.398261 0.126909 0)
(0.555305 0.0746913 0)
(0.667265 0.0416892 0)
(0.730362 0.023275 0)
(0.766988 0.0130374 0)
(0.789247 0.00735272 0)
(0.802779 0.00414053 0)
(0.810714 0.00221232 0)
(0.814784 0.000900132 0)
(0.815776 -0.000198945 0)
(0.813768 -0.00139412 0)
(0.808157 -0.00304021 0)
(0.797421 -0.00571197 0)
(0.778602 -0.0105017 0)
(0.746131 -0.0195616 0)
(0.687759 -0.037078 0)
(0.578394 -0.0706885 0)
(0.416042 -0.126393 0)
(0.310438 -0.148934 0)
)
;

boundaryField
{
    movingWall
    {
        type            fixedValue;
        value           uniform (1 0 0);
    }
    fixedWalls
    {
        type            noSlip;
    }
    frontAndBack
    {
        type            empty;
    }
}


// ************************************************************************* //
