/*--------------------------------*- C++ -*----------------------------------*\
  =========                 |
  \\      /  F ield         | OpenFOAM: The Open Source CFD Toolbox
   \\    /   O peration     | Website:  https://openfoam.org
    \\  /    A nd           | Version:  6
     \\/     M anipulation  |
\*---------------------------------------------------------------------------*/
FoamFile
{
    version     2.0;
    format      ascii;
    class       volScalarField;
    location    "0.005";
    object      p;
}
// * * * * * * * * * * * * * * * * * * * * * * * * * * * * * * * * * * * * * //

dimensions      [0 2 -2 0 0 0 0];

internalField   nonuniform List<scalar> 
400
(
-4.37273e-07
-0.029569
-0.0631471
-0.0848982
-0.0868516
-0.0664684
-0.0244761
0.0361213
0.110898
0.194595
0.28148
0.365632
0.441242
0.50296
0.546317
0.568331
0.568387
0.549357
0.518901
0.491614
0.0246348
-0.00552942
-0.0314619
-0.0453751
-0.0435465
-0.0239442
0.0131116
0.0653823
0.129381
0.200832
0.274972
0.346844
0.411617
0.464927
0.503247
0.524351
0.527963
0.516199
0.492688
0.464608
0.0536674
0.0135538
-0.0138322
-0.0260905
-0.0232541
-0.00419564
0.0305968
0.0790209
0.137936
0.203529
0.271554
0.337581
0.39728
0.446731
0.482726
0.503125
0.507409
0.496679
0.470811
0.43204
0.0767917
0.0227957
-0.010943
-0.0250472
-0.022613
-0.00345506
0.0314648
0.079778
0.138285
0.203254
0.270596
0.33605
0.395413
0.444804
0.480905
0.501253
0.504803
0.491685
0.458775
0.405458
0.0878903
0.0186039
-0.0232403
-0.0402543
-0.0381718
-0.0177194
0.0195296
0.0707338
0.13241
0.200679
0.271381
0.340207
0.402861
0.455265
0.493749
0.515311
0.518255
0.501809
0.460304
0.391295
0.0821761
-0.00372147
-0.0546075
-0.0745998
-0.0719444
-0.0483155
-0.00603721
0.0513959
0.12003
0.195657
0.273876
0.350163
0.419965
0.478826
0.52252
0.547306
0.550688
0.530954
0.47999
0.393972
0.0554183
-0.0491719
-0.109784
-0.132057
-0.127046
-0.0975571
-0.0468705
0.020665
0.10046
0.18784
0.278051
0.366254
0.447523
0.516885
0.56937
0.600268
0.606051
0.583848
0.522765
0.417566
0.00251711
-0.123742
-0.194526
-0.217485
-0.207282
-0.168256
-0.104944
-0.0227847
0.072852
0.176757
0.283788
0.38877
0.486371
0.571014
0.636818
0.677826
0.689125
0.666237
0.594617
0.467102
-0.0837064
-0.235429
-0.316328
-0.337102
-0.317432
-0.263867
-0.182629
-0.080511
0.0362276
0.161855
0.290919
0.418002
0.537438
0.643049
0.727909
0.784496
0.80601
0.785603
0.703571
0.549735
-0.213751
-0.395271
-0.485059
-0.498729
-0.463207
-0.388283
-0.28242
-0.154044
-0.0103306
0.142607
0.299235
0.454149
0.601582
0.734888
0.846057
0.925673
0.964391
0.951837
0.860756
0.676017
-0.403082
-0.618667
-0.713676
-0.711928
-0.651006
-0.545401
-0.406474
-0.244484
-0.0673907
0.118648
0.308464
0.497146
0.679275
0.848105
0.994675
1.10743
1.17372
1.17801
1.08184
0.861699
-0.674786
-0.927302
-1.01905
-0.987959
-0.887376
-0.738391
-0.555884
-0.351909
-0.134773
0.0899685
0.318246
0.546407
0.770152
0.98333
1.17652
1.33605
1.44524
1.4813
1.38913
1.13065
-1.06438
-1.35209
-1.4228
-1.33927
-1.17787
-0.968412
-0.729531
-0.474482
-0.210943
0.0572202
0.328141
0.600544
0.872402
1.13935
1.39258
1.61698
1.79158
1.88396
1.81468
1.51994
-1.62944
-1.93779
-1.95169
-1.77774
-1.52466
-1.23237
-0.922266
-0.607122
-0.292133
0.0222116
0.337762
0.65709
0.982022
1.31179
1.64027
1.95279
2.22514
2.41374
2.40507
2.08986
-2.46909
-2.74957
-2.63565
-2.30997
-1.92172
-1.51898
-1.12216
-0.739728
-0.371287
-0.0115699
0.346847
0.712075
1.09171
1.49109
1.91014
2.33881
2.75372
3.10211
3.22799
2.94381
-3.75724
-3.8783
-3.50119
-2.92905
-2.34806
-1.80425
-1.30787
-0.85593
-0.437611
-0.0389449
0.354988
0.759426
1.18965
1.66012
2.1818
2.75692
3.37274
3.97781
4.37742
4.26171
-5.80088
-5.43941
-4.55897
-3.6072
-2.76421
-2.05046
-1.44939
-0.934538
-0.478058
-0.0541344
0.361092
0.790907
1.25966
1.79397
2.42249
3.17209
4.05808
5.05453
5.97224
6.35765
-9.27863
-7.57606
-5.74493
-4.25055
-3.08596
-2.19287
-1.5023
-0.947867
-0.477524
-0.0517728
0.361844
0.793726
1.27685
1.85165
2.57147
3.50427
4.71975
6.27223
8.16185
9.92032
-15.9578
-10.3756
-6.64264
-4.47762
-3.0489
-2.06433
-1.36677
-0.8398
-0.408221
-0.0240655
0.347726
0.738622
1.18414
1.73314
2.46222
3.49039
4.97864
7.21941
11.0422
16.7256
-27.1308
-13.0697
-6.38884
-3.72592
-2.3453
-1.51251
-0.971477
-0.578758
-0.258181
0.0303212
0.312012
0.60837
0.945025
1.36267
1.93833
2.81817
4.26675
7.02608
13.8213
27.9965
)
;

boundaryField
{
    movingWall
    {
        type            zeroGradient;
    }
    fixedWalls
    {
        type            zeroGradient;
    }
    frontAndBack
    {
        type            empty;
    }
}


// ************************************************************************* //
