/*--------------------------------*- C++ -*----------------------------------*\
  =========                 |
  \\      /  F ield         | OpenFOAM: The Open Source CFD Toolbox
   \\    /   O peration     | Website:  https://openfoam.org
    \\  /    A nd           | Version:  6
     \\/     M anipulation  |
\*---------------------------------------------------------------------------*/
FoamFile
{
    version     2.0;
    format      ascii;
    class       surfaceScalarField;
    location    "0.005";
    object      phi;
}
// * * * * * * * * * * * * * * * * * * * * * * * * * * * * * * * * * * * * * //

dimensions      [0 3 -1 0 0 0 0];

internalField   nonuniform List<scalar> 
760
(
8.2183e-09
-8.21748e-09
-2.57882e-08
3.40064e-08
-1.03326e-07
7.75384e-08
-2.08959e-07
1.05633e-07
-3.26433e-07
1.17475e-07
-4.41314e-07
1.14881e-07
-5.41969e-07
1.00655e-07
-6.19765e-07
7.77965e-08
-6.68844e-07
4.9079e-08
-6.85795e-07
1.69521e-08
-6.69448e-07
-1.63472e-08
-6.2081e-07
-4.86376e-08
-5.43182e-07
-7.76276e-08
-4.42412e-07
-1.0077e-07
-3.27214e-07
-1.15198e-07
-2.09362e-07
-1.17852e-07
-1.03444e-07
-1.05918e-07
-2.58494e-08
-7.75945e-08
8.36733e-09
-3.42169e-08
8.36698e-09
-3.25551e-08
2.43374e-08
-1.54841e-07
1.56292e-07
-3.58454e-07
2.8115e-07
-6.16442e-07
3.6362e-07
-8.96651e-07
3.97684e-07
-1.1686e-06
3.8683e-07
-1.40649e-06
3.38549e-07
-1.59041e-06
2.61717e-07
-1.70645e-06
1.65119e-07
-1.74642e-06
5.69159e-08
-1.7075e-06
-5.52595e-08
-1.59221e-06
-1.63927e-07
-1.40854e-06
-2.61305e-07
-1.17033e-06
-3.38975e-07
-8.97652e-07
-3.87876e-07
-6.1658e-07
-3.98924e-07
-3.57915e-07
-3.64583e-07
-1.53963e-07
-2.81548e-07
-3.1903e-08
-1.56278e-07
-2.35356e-08
-7.63999e-08
1.00737e-07
-2.8832e-07
3.68212e-07
-6.07107e-07
5.99938e-07
-9.93235e-07
7.49747e-07
-1.40341e-06
8.07857e-07
-1.7968e-06
7.80224e-07
-2.13868e-06
6.80429e-07
-2.40202e-06
5.25061e-07
-2.56784e-06
3.30933e-07
-2.62488e-06
1.13958e-07
-2.56931e-06
-1.10834e-07
-2.40456e-06
-3.28673e-07
-2.1416e-06
-5.24261e-07
-1.79936e-06
-6.81217e-07
-1.40503e-06
-7.82207e-07
-9.93712e-07
-8.10243e-07
-6.06668e-07
-7.51626e-07
-2.8754e-07
-6.00677e-07
-7.60185e-08
-3.67799e-07
-9.95536e-08
-1.14866e-07
2.15602e-07
-4.11976e-07
6.65323e-07
-8.40775e-07
1.02874e-06
-1.34624e-06
1.25521e-06
-1.87358e-06
1.3352e-06
-2.37322e-06
1.27986e-06
-2.80385e-06
1.11105e-06
-3.13374e-06
8.54952e-07
-3.3408e-06
5.37999e-07
-3.41203e-06
1.8519e-07
-3.34298e-06
-1.79892e-07
-3.13755e-06
-5.34094e-07
-2.80839e-06
-8.53423e-07
-2.37745e-06
-1.11216e-06
-1.87663e-06
-1.28303e-06
-1.34769e-06
-1.33918e-06
-8.40834e-07
-1.25849e-06
-4.11341e-07
-1.03017e-06
-1.14417e-07
-6.64723e-07
-2.13971e-07
-1.50326e-07
3.65927e-07
-5.31629e-07
1.04663e-06
-1.07111e-06
1.56822e-06
-1.69594e-06
1.88004e-06
-2.33838e-06
1.97765e-06
-2.93999e-06
1.88147e-06
-3.45383e-06
1.6249e-06
-3.84495e-06
1.24607e-06
-4.08955e-06
7.82594e-07
-4.17382e-06
2.69459e-07
-4.09301e-06
-2.60698e-07
-3.85114e-06
-7.75967e-07
-3.46144e-06
-1.24312e-06
-2.94747e-06
-1.62613e-06
-2.34436e-06
-1.88613e-06
-1.69959e-06
-1.98394e-06
-1.07246e-06
-1.88562e-06
-5.31492e-07
-1.57114e-06
-1.49933e-07
-1.04628e-06
-3.63905e-07
-1.86893e-07
5.52821e-07
-6.5738e-07
1.51711e-06
-1.31488e-06
2.22572e-06
-2.06604e-06
2.6312e-06
-2.82824e-06
2.73984e-06
-3.5336e-06
2.58683e-06
-4.13018e-06
2.22148e-06
-4.58095e-06
1.69684e-06
-4.86168e-06
1.06333e-06
-4.95871e-06
3.66486e-07
-4.86729e-06
-3.5212e-07
-4.5911e-06
-1.05215e-06
-4.143e-06
-1.69123e-06
-3.54676e-06
-2.22237e-06
-2.8395e-06
-2.59339e-06
-2.07388e-06
-2.74957e-06
-1.31889e-06
-2.64061e-06
-6.58448e-07
-2.23158e-06
-1.86745e-07
-1.51799e-06
-5.5065e-07
-2.28576e-07
7.81397e-07
-7.99923e-07
2.08846e-06
-1.58927e-06
3.01506e-06
-2.47889e-06
3.52081e-06
-3.36904e-06
3.62999e-06
-4.18205e-06
3.39984e-06
-4.86191e-06
2.90134e-06
-5.37116e-06
2.2061e-06
-5.6868e-06
1.37896e-06
-5.7964e-06
4.76088e-07
-5.69562e-06
-4.52895e-07
-5.38735e-06
-1.36042e-06
-4.88276e-06
-2.19582e-06
-4.20413e-06
-2.901e-06
-3.38886e-06
-3.40866e-06
-2.49375e-06
-3.64469e-06
-1.598e-06
-3.53636e-06
-8.03306e-07
-3.02627e-06
-2.28994e-07
-2.0923e-06
-7.79643e-07
-2.79242e-07
1.06064e-06
-9.69544e-07
2.77876e-06
-1.90987e-06
3.95539e-06
-2.9526e-06
4.56354e-06
-3.97861e-06
4.656e-06
-4.90085e-06
4.32209e-06
-5.66135e-06
3.66184e-06
-6.22489e-06
2.76963e-06
-6.57205e-06
1.72612e-06
-6.69332e-06
5.97361e-07
-6.58529e-06
-5.60921e-07
-6.24942e-06
-1.69629e-06
-5.69349e-06
-2.75174e-06
-4.93575e-06
-3.65875e-06
-4.01105e-06
-4.33335e-06
-2.97818e-06
-4.67756e-06
-1.92612e-06
-4.58842e-06
-9.76825e-07
-3.97557e-06
-2.8071e-07
-2.78841e-06
-1.06035e-06
-3.42774e-07
1.40341e-06
-1.17583e-06
3.61181e-06
-2.28923e-06
5.06879e-06
-3.49814e-06
5.77245e-06
-4.66232e-06
5.82018e-06
-5.6875e-06
5.34727e-06
-6.51772e-06
4.49205e-06
-7.12428e-06
3.37619e-06
-7.49491e-06
2.09675e-06
-7.62527e-06
7.27722e-07
-7.51366e-06
-6.72523e-07
-7.15933e-06
-2.05062e-06
-6.56437e-06
-3.3467e-06
-5.73928e-06
-4.48384e-06
-4.71192e-06
-5.36071e-06
-3.53881e-06
-5.85068e-06
-2.3165e-06
-5.81073e-06
-1.18912e-06
-5.10295e-06
-3.4598e-07
-3.63155e-06
-1.40633e-06
-4.23471e-07
1.82688e-06
-1.42767e-06
4.61601e-06
-2.73525e-06
6.37637e-06
-4.11543e-06
7.15264e-06
-5.40691e-06
7.11166e-06
-6.51337e-06
6.45372e-06
-7.38775e-06
5.36643e-06
-8.01428e-06
4.00272e-06
-8.3927e-06
2.47517e-06
-8.52677e-06
8.618e-07
-8.41757e-06
-7.81725e-07
-8.06122e-06
-2.40697e-06
-7.4512e-06
-3.95672e-06
-6.58537e-06
-5.34967e-06
-5.4779e-06
-6.46819e-06
-4.17577e-06
-7.15281e-06
-2.7776e-06
-7.2089e-06
-1.44964e-06
-6.43091e-06
-4.29369e-07
-4.65182e-06
-1.8357e-06
-5.26787e-07
2.35367e-06
-1.73338e-06
5.82261e-06
-3.24868e-06
7.89166e-06
-4.78726e-06
8.69122e-06
-6.17113e-06
8.49553e-06
-7.31212e-06
7.59471e-06
-8.1829e-06
6.23721e-06
-8.78935e-06
4.60917e-06
-9.14916e-06
2.83497e-06
-9.27761e-06
9.90248e-07
-9.17971e-06
-8.79627e-07
-8.84763e-06
-2.73905e-06
-8.26311e-06
-4.54123e-06
-7.40542e-06
-6.20736e-06
-6.26603e-06
-7.60759e-06
-4.87102e-06
-8.54781e-06
-3.31018e-06
-8.76974e-06
-1.76711e-06
-7.97397e-06
-5.36635e-07
-5.8823e-06
-2.37234e-06
-6.60613e-07
3.01428e-06
-2.10044e-06
7.26244e-06
-3.81835e-06
9.60957e-06
-5.46938e-06
1.03423e-05
-6.87197e-06
9.89812e-06
-7.964e-06
8.68674e-06
-8.75324e-06
7.02645e-06
-9.27779e-06
5.13371e-06
-9.5794e-06
3.13659e-06
-9.68793e-06
1.09877e-06
-9.6134e-06
-9.54151e-07
-9.34357e-06
-3.00889e-06
-8.84586e-06
-5.03894e-06
-8.07508e-06
-6.97814e-06
-6.98928e-06
-8.69339e-06
-5.57759e-06
-9.95951e-06
-3.90191e-06
-1.04454e-05
-2.14904e-06
-9.72684e-06
-6.75971e-07
-7.35536e-06
-3.04831e-06
-8.37541e-07
3.85182e-06
-2.53415e-06
8.95904e-06
-4.41182e-06
1.14872e-05
-6.07389e-06
1.20043e-05
-7.3643e-06
1.11885e-05
-8.27523e-06
9.59768e-06
-8.86889e-06
7.62011e-06
-9.22584e-06
5.49066e-06
-9.41611e-06
3.32685e-06
-9.48529e-06
1.16795e-06
-9.44889e-06
-9.90547e-07
-9.29059e-06
-3.1672e-06
-8.96308e-06
-5.36645e-06
-8.39312e-06
-7.5481e-06
-7.49527e-06
-9.59124e-06
-6.20181e-06
-1.1253e-05
-4.51702e-06
-1.21302e-05
-2.59977e-06
-1.16441e-05
-8.60147e-07
-9.09499e-06
-3.90846e-06
-1.07827e-06
4.9301e-06
-3.03203e-06
1.09128e-05
-4.9557e-06
1.34109e-05
-6.44057e-06
1.34892e-05
-7.41107e-06
1.2159e-05
-7.95279e-06
1.01394e-05
-8.20165e-06
7.86897e-06
-8.28591e-06
5.57492e-06
-8.30223e-06
3.34317e-06
-8.3091e-06
1.17482e-06
-8.32643e-06
-9.73216e-07
-8.33567e-06
-3.15796e-06
-8.27857e-06
-5.42354e-06
-8.05647e-06
-7.7702e-06
-7.53607e-06
-1.01116e-05
-6.5736e-06
-1.22154e-05
-5.07524e-06
-1.36286e-05
-3.1139e-06
-1.36054e-05
-1.10963e-06
-1.10993e-05
-5.01809e-06
-1.41349e-06
6.34359e-06
-3.56334e-06
1.30627e-05
-5.29212e-06
1.51397e-05
-6.28629e-06
1.44834e-05
-6.64026e-06
1.2513e-05
-6.576e-06
1.00751e-05
-6.31192e-06
7.60489e-06
-6.01567e-06
5.27868e-06
-5.79801e-06
3.12551e-06
-5.72063e-06
1.09744e-06
-5.80444e-06
-8.89407e-07
-6.03245e-06
-2.92995e-06
-6.34579e-06
-5.1102e-06
-6.63421e-06
-7.48178e-06
-6.72654e-06
-1.00193e-05
-6.39569e-06
-1.25463e-05
-5.40677e-06
-1.46175e-05
-3.65395e-06
-1.53583e-05
-1.45377e-06
-1.32994e-05
-6.47186e-06
-1.86875e-06
8.21233e-06
-4.0012e-06
1.51951e-05
-5.08154e-06
1.622e-05
-5.11622e-06
1.4518e-05
-4.4859e-06
1.18827e-05
-3.57098e-06
9.16022e-06
-2.65053e-06
6.68444e-06
-1.89879e-06
4.52693e-06
-1.41242e-06
2.63915e-06
-1.23859e-06
9.23604e-07
-1.39296e-06
-7.35039e-07
-1.86567e-06
-2.45723e-06
-2.61493e-06
-4.36094e-06
-3.54787e-06
-6.54884e-06
-4.49062e-06
-9.07656e-06
-5.15801e-06
-1.18789e-05
-5.1549e-06
-1.46206e-05
-4.07997e-06
-1.64332e-05
-1.91372e-06
-1.54657e-05
-8.38558e-06
-2.38605e-06
1.05984e-05
-3.9324e-06
1.67414e-05
-3.59835e-06
1.5886e-05
-2.07849e-06
1.29982e-05
-1.18294e-07
9.92249e-06
1.7977e-06
7.24423e-06
3.40931e-06
5.07283e-06
4.60066e-06
3.33559e-06
5.33135e-06
1.90845e-06
5.59161e-06
6.63348e-07
5.37869e-06
-5.22114e-07
4.68952e-06
-1.76807e-06
3.52762e-06
-3.19904e-06
1.92664e-06
-4.94785e-06
-3.24102e-09
-7.14668e-06
-2.00276e-06
-9.87938e-06
-3.57772e-06
-1.30456e-05
-3.95878e-06
-1.60521e-05
-2.42035e-06
-1.70041e-05
-1.08059e-05
-2.57159e-06
1.317e-05
-2.18793e-06
1.63578e-05
6.65591e-07
1.30325e-05
4.24901e-06
9.41477e-06
7.61396e-06
6.55754e-06
1.03909e-05
4.4673e-06
1.2491e-05
2.97276e-06
1.39402e-05
1.88629e-06
1.47938e-05
1.05492e-06
1.50949e-05
3.62228e-07
1.48586e-05
-2.85819e-07
1.40667e-05
-9.76194e-07
1.26715e-05
-1.80377e-06
1.06109e-05
-2.88733e-06
7.84953e-06
-4.38528e-06
4.46615e-06
-6.496e-06
8.2699e-07
-9.40646e-06
-2.1067e-06
-1.31184e-05
-2.56018e-06
-1.65506e-05
-1.33661e-05
-6.07973e-07
1.3778e-05
4.49386e-06
1.1256e-05
1.07377e-05
6.7886e-06
1.60653e-05
4.08714e-06
2.01176e-05
2.50532e-06
2.30318e-05
1.55308e-06
2.50392e-05
9.65357e-07
2.63409e-05
5.84612e-07
2.70786e-05
3.17201e-07
2.73345e-05
1.06325e-07
2.71356e-05
-8.69088e-08
2.64555e-05
-2.96107e-07
2.52117e-05
-5.60004e-07
2.32597e-05
-9.35332e-07
2.03911e-05
-1.51665e-06
1.63612e-05
-2.46609e-06
1.10158e-05
-4.06103e-06
4.70403e-06
-6.8067e-06
-5.08188e-07
-1.13384e-05
-1.38743e-05
1.3778e-05
2.50339e-05
3.18225e-05
3.59096e-05
3.8415e-05
3.99681e-05
4.09334e-05
4.1518e-05
4.18352e-05
4.19415e-05
4.18546e-05
4.15585e-05
4.09985e-05
4.00632e-05
3.85465e-05
3.60805e-05
3.20194e-05
2.52127e-05
1.38743e-05
)
;

boundaryField
{
    movingWall
    {
        type            calculated;
        value           uniform 0;
    }
    fixedWalls
    {
        type            calculated;
        value           uniform 0;
    }
    frontAndBack
    {
        type            empty;
        value           nonuniform 0();
    }
}


// ************************************************************************* //
