/*--------------------------------*- C++ -*----------------------------------*\
  =========                 |
  \\      /  F ield         | OpenFOAM: The Open Source CFD Toolbox
   \\    /   O peration     | Website:  https://openfoam.org
    \\  /    A nd           | Version:  6
     \\/     M anipulation  |
\*---------------------------------------------------------------------------*/
FoamFile
{
    version     2.0;
    format      ascii;
    class       volScalarField;
    location    "0.09";
    object      p;
}
// * * * * * * * * * * * * * * * * * * * * * * * * * * * * * * * * * * * * * //

dimensions      [0 2 -2 0 0 0 0];

internalField   nonuniform List<scalar> 
400
(
2.39666e-06
-0.00441679
-0.00985001
-0.0139346
-0.0153538
-0.0135349
-0.00843823
-0.000400985
0.00997746
0.0219099
0.0344755
0.0466731
0.0574861
0.0659693
0.0713613
0.0732234
0.0716024
0.0671974
0.0615297
0.0570967
0.00438567
-0.000167449
-0.00442173
-0.00720478
-0.00789778
-0.00610086
-0.00176003
0.00488572
0.0133843
0.0231229
0.0333719
0.0433321
0.0521942
0.0592143
0.0638047
0.0656404
0.0647778
0.0617175
0.0572576
0.0527166
0.0101458
0.00382279
-0.000780808
-0.00332904
-0.00386577
-0.0021899
0.00169628
0.00756742
0.0150378
0.0235922
0.0326122
0.0414121
0.0492886
0.0555845
0.0597644
0.0615017
0.060785
0.057914
0.0530462
0.0467158
0.0152751
0.0065332
0.000808505
-0.00210308
-0.00279902
-0.00125707
0.00243855
0.00803036
0.0151465
0.0233132
0.0319635
0.0404586
0.0481261
0.0543134
0.0584533
0.060144
0.0592662
0.0559429
0.0498205
0.0409751
0.0184811
0.0071968
0.000132027
-0.00331434
-0.00421943
-0.00271712
0.00102478
0.00670146
0.0139323
0.0222583
0.0311326
0.0399277
0.0479611
0.0545385
0.0590117
0.0608604
0.0598316
0.055883
0.0482218
0.0366307
0.0188009
0.00494129
-0.0035199
-0.00750742
-0.00853752
-0.00688609
-0.00280382
0.00334964
0.0111722
0.020203
0.0298957
0.03961
0.0486234
0.0561632
0.0614582
0.063826
0.062847
0.0583029
0.0489843
0.0344642
0.0153808
-0.0011016
-0.0109379
-0.0153576
-0.0163169
-0.0142356
-0.00945107
-0.0023831
0.00653881
0.0168453
0.0279822
0.0392841
0.0499691
0.0591575
0.0659142
0.069344
0.0688093
0.0638738
0.0528685
0.0351727
0.00732739
-0.0118598
-0.0229837
-0.0276104
-0.0281843
-0.025292
-0.0193698
-0.0109023
-0.000345245
0.0118287
0.0250631
0.0386705
0.0518054
0.0634626
0.0725046
0.0777629
0.0783058
0.0733925
0.0607722
0.039574
-0.00640687
-0.028418
-0.0406624
-0.0451291
-0.0448559
-0.0406466
-0.0330593
-0.0226486
-0.00988719
0.00476696
0.0207784
0.0374602
0.0539178
0.0690184
0.0813916
0.0895259
0.0920895
0.0878943
0.0738831
0.0487924
-0.0271254
-0.0521102
-0.0651744
-0.0688998
-0.067105
-0.060897
-0.0509917
-0.038018
-0.0224465
-0.00468571
0.0147936
0.0353522
0.0560894
0.0757687
0.0927743
0.105183
0.111127
0.108757
0.0938455
0.0644561
-0.0565269
-0.084643
-0.0979715
-0.100014
-0.0956882
-0.0865373
-0.0734825
-0.057226
-0.038202
-0.0167142
0.00690126
0.0321313
0.0581488
0.0836806
0.106892
0.125398
0.136647
0.137827
0.122976
0.0889654
-0.0969619
-0.128296
-0.140828
-0.139623
-0.131219
-0.117787
-0.100499
-0.0801125
-0.056964
-0.031168
-0.00282575
0.0277915
0.060058
0.0927915
0.124035
0.150956
0.170181
0.177568
0.164575
0.125922
-0.151963
-0.186261
-0.195923
-0.188826
-0.173958
-0.154336
-0.131401
-0.105892
-0.0779424
-0.0473518
-0.0138505
0.0226877
0.0620207
0.103266
0.144553
0.182741
0.213593
0.231242
0.223394
0.180895
-0.227407
-0.26323
-0.265875
-0.248423
-0.223455
-0.194985
-0.164612
-0.13288
-0.0995211
-0.0638413
-0.0250227
0.0176491
0.0645506
0.1154
0.168778
0.221598
0.268966
0.30304
0.306359
0.262922
-0.334003
-0.366296
-0.353532
-0.318302
-0.277907
-0.237108
-0.197241
-0.158249
-0.11913
-0.0784343
-0.034586
0.0139275
0.0683655
0.129428
0.196704
0.267881
0.338122
0.397923
0.42353
0.387401
-0.49185
-0.505902
-0.461223
-0.396436
-0.333337
-0.27614
-0.224864
-0.178052
-0.133422
-0.0884258
-0.0405053
0.0128424
0.074007
0.145089
0.227424
0.320683
0.421658
0.520769
0.588676
0.580518
-0.738848
-0.696153
-0.589415
-0.478157
-0.383395
-0.305783
-0.242063
-0.187961
-0.139102
-0.0914489
-0.0412737
0.0150304
0.0811529
0.160984
0.258507
0.377138
0.51792
0.674724
0.819017
0.886591
-1.16238
-0.954966
-0.729384
-0.550837
-0.416512
-0.316901
-0.242397
-0.183849
-0.133843
-0.0865789
-0.0371826
0.0189508
0.0867547
0.172114
0.282559
0.42749
0.616027
0.853439
1.1374
1.40154
-1.99693
-1.2925
-0.825473
-0.563856
-0.397334
-0.286862
-0.212368
-0.158458
-0.114658
-0.0739793
-0.0311085
0.0188151
0.0811898
0.163165
0.27556
0.435117
0.66464
1.00306
1.55985
2.36603
-3.44306
-1.61243
-0.763053
-0.442817
-0.285154
-0.195626
-0.143161
-0.108895
-0.0818919
-0.0559395
-0.0268077
0.00922787
0.0564103
0.120878
0.213423
0.354539
0.582851
1.0002
1.9639
3.909
)
;

boundaryField
{
    movingWall
    {
        type            zeroGradient;
    }
    fixedWalls
    {
        type            zeroGradient;
    }
    frontAndBack
    {
        type            empty;
    }
}


// ************************************************************************* //
