/*--------------------------------*- C++ -*----------------------------------*\
  =========                 |
  \\      /  F ield         | OpenFOAM: The Open Source CFD Toolbox
   \\    /   O peration     | Website:  https://openfoam.org
    \\  /    A nd           | Version:  6
     \\/     M anipulation  |
\*---------------------------------------------------------------------------*/
FoamFile
{
    version     2.0;
    format      ascii;
    class       surfaceScalarField;
    location    "0.03";
    object      phi;
}
// * * * * * * * * * * * * * * * * * * * * * * * * * * * * * * * * * * * * * //

dimensions      [0 3 -1 0 0 0 0];

internalField   nonuniform List<scalar> 
760
(
-2.43199e-08
2.43199e-08
-8.80806e-08
6.37607e-08
-1.63563e-07
7.54828e-08
-2.37311e-07
7.37473e-08
-3.04427e-07
6.71165e-08
-3.62584e-07
5.81572e-08
-4.10168e-07
4.75838e-08
-4.45899e-07
3.57308e-08
-4.68774e-07
2.2875e-08
-4.7807e-07
9.29638e-09
-4.73361e-07
-4.70908e-09
-4.54539e-07
-1.88222e-08
-4.21847e-07
-3.26926e-08
-3.75914e-07
-4.59331e-08
-3.17804e-07
-5.81097e-08
-2.49121e-07
-6.86824e-08
-1.72444e-07
-7.66771e-08
-9.32544e-08
-7.91899e-08
-2.60221e-08
-6.72323e-08
-2.60221e-08
-6.48656e-08
8.91855e-08
-1.88087e-07
1.86982e-07
-3.28178e-07
2.15573e-07
-4.65169e-07
2.10738e-07
-5.90086e-07
1.92034e-07
-6.98219e-07
1.6629e-07
-7.86404e-07
1.35769e-07
-8.52252e-07
1.01579e-07
-8.93968e-07
6.45911e-08
-9.10315e-07
2.56437e-08
-9.00617e-07
-1.44079e-08
-8.64781e-07
-5.46582e-08
-8.03352e-07
-9.4121e-08
-7.17585e-07
-1.317e-07
-6.09553e-07
-1.66142e-07
-4.82401e-07
-1.95834e-07
-3.41206e-07
-2.17873e-07
-1.95789e-07
-2.24606e-07
-6.75451e-08
-1.95476e-07
-9.35671e-08
-8.19296e-08
1.71115e-07
-2.32103e-07
3.37156e-07
-4.00151e-07
3.83621e-07
-5.63539e-07
3.74127e-07
-7.12192e-07
3.40687e-07
-8.40671e-07
2.94769e-07
-9.45289e-07
2.40388e-07
-1.02329e-06
1.7958e-07
-1.07263e-06
1.13931e-07
-1.09191e-06
4.49236e-08
-1.08036e-06
-2.59547e-08
-1.03788e-06
-9.71464e-08
-9.65043e-07
-1.66953e-07
-8.63275e-07
-2.33469e-07
-7.3494e-07
-2.94476e-07
-5.83682e-07
-3.47093e-07
-4.15353e-07
-3.86202e-07
-2.41033e-07
-3.98926e-07
-8.49684e-08
-3.51541e-07
-1.78536e-07
-9.04705e-08
2.61586e-07
-2.5709e-07
5.03775e-07
-4.42707e-07
5.69238e-07
-6.224e-07
5.53819e-07
-7.85406e-07
5.03694e-07
-9.26012e-07
4.35374e-07
-1.04038e-06
3.54757e-07
-1.12568e-06
2.64877e-07
-1.17981e-06
1.68061e-07
-1.20132e-06
6.64403e-08
-1.18939e-06
-3.78924e-08
-1.14377e-06
-1.42761e-07
-1.06495e-06
-2.45776e-07
-9.54211e-07
-3.44207e-07
-8.13877e-07
-4.34811e-07
-6.47678e-07
-5.13292e-07
-4.61807e-07
-5.72072e-07
-2.6828e-07
-5.92453e-07
-9.42263e-08
-5.25595e-07
-2.72762e-07
-9.89993e-08
3.60585e-07
-2.82183e-07
6.86959e-07
-4.85922e-07
7.72977e-07
-6.82518e-07
7.50416e-07
-8.60297e-07
6.81473e-07
-1.01327e-06
5.88342e-07
-1.13754e-06
4.79029e-07
-1.23032e-06
3.57654e-07
-1.28956e-06
2.27301e-07
-1.31381e-06
9.0696e-08
-1.30215e-06
-4.95505e-08
-1.25417e-06
-1.90748e-07
-1.17004e-06
-3.29905e-07
-1.05074e-06
-4.63506e-07
-8.98326e-07
-5.87223e-07
-7.16462e-07
-6.95156e-07
-5.11691e-07
-7.76843e-07
-2.97334e-07
-8.0681e-07
-1.04095e-07
-7.18833e-07
-3.76857e-07
-1.1021e-07
4.70794e-07
-3.14359e-07
8.91108e-07
-5.40913e-07
9.99531e-07
-7.58699e-07
9.68202e-07
-9.54833e-07
8.77606e-07
-1.123e-06
7.56511e-07
-1.25935e-06
6.15382e-07
-1.36126e-06
4.59557e-07
-1.42683e-06
2.92877e-07
-1.4547e-06
1.18567e-07
-1.44385e-06
-6.04077e-08
-1.39356e-06
-2.41033e-07
-1.30357e-06
-4.19893e-07
-1.17429e-06
-5.92788e-07
-1.00724e-06
-7.54274e-07
-8.05811e-07
-8.96585e-07
-5.76922e-07
-1.00573e-06
-3.35654e-07
-1.04808e-06
-1.17413e-07
-9.37075e-07
-4.9427e-07
-1.25129e-07
5.95923e-07
-3.5658e-07
1.12256e-06
-6.12459e-07
1.25541e-06
-8.57112e-07
1.21285e-06
-1.07615e-06
1.09664e-06
-1.26298e-06
9.43339e-07
-1.41396e-06
7.66366e-07
-1.52686e-06
5.72456e-07
-1.60016e-06
3.66176e-07
-1.63268e-06
1.51084e-07
-1.62332e-06
-6.97694e-08
-1.57098e-06
-2.93365e-07
-1.47471e-06
-5.16169e-07
-1.33397e-06
-7.33529e-07
-1.14932e-06
-9.38921e-07
-9.23496e-07
-1.12241e-06
-6.63641e-07
-1.26559e-06
-3.87069e-07
-1.32465e-06
-1.35498e-07
-1.18865e-06
-6.29768e-07
-1.44665e-07
7.40588e-07
-4.11341e-07
1.38923e-06
-7.04425e-07
1.54849e-06
-9.82455e-07
1.49089e-06
-1.22927e-06
1.34346e-06
-1.43818e-06
1.15225e-06
-1.60613e-06
9.34315e-07
-1.73165e-06
6.97981e-07
-1.81394e-06
4.48465e-07
-1.85223e-06
1.89372e-07
-1.84542e-06
-7.65845e-08
-1.7919e-06
-3.46882e-07
-1.68968e-06
-6.1839e-07
-1.53676e-06
-8.86445e-07
-1.33203e-06
-1.14365e-06
-1.07681e-06
-1.37764e-06
-7.78006e-07
-1.56439e-06
-4.55582e-07
-1.64707e-06
-1.59792e-07
-1.48444e-06
-7.8956e-07
-1.70112e-07
9.107e-07
-4.81987e-07
1.70111e-06
-8.21754e-07
1.88826e-06
-1.14043e-06
1.80956e-06
-1.4199e-06
1.62293e-06
-1.65384e-06
1.38619e-06
-1.84042e-06
1.12089e-06
-1.9796e-06
8.37157e-07
-2.07179e-06
5.40655e-07
-2.117e-06
2.34587e-07
-2.11429e-06
-7.93021e-08
-2.06142e-06
-3.99748e-07
-1.95496e-06
-7.24852e-07
-1.79067e-06
-1.05073e-06
-1.56464e-06
-1.36969e-06
-1.27544e-06
-1.66683e-06
-9.28686e-07
-1.91114e-06
-5.4711e-07
-2.02865e-06
-1.92534e-07
-1.83901e-06
-9.82094e-07
-2.03535e-07
1.11423e-06
-5.73607e-07
2.07118e-06
-9.71625e-07
2.28628e-06
-1.33891e-06
2.17684e-06
-1.65549e-06
1.93952e-06
-1.91635e-06
1.64704e-06
-2.12194e-06
1.32649e-06
-2.27467e-06
9.89882e-07
-2.37696e-06
6.4295e-07
-2.43016e-06
2.87786e-07
-2.43372e-06
-7.57428e-08
-2.38475e-06
-4.48716e-07
-2.27789e-06
-8.31715e-07
-2.10564e-06
-1.22298e-06
-1.85961e-06
-1.61572e-06
-1.53338e-06
-1.99306e-06
-1.12897e-06
-2.31555e-06
-6.71241e-07
-2.48638e-06
-2.37534e-07
-2.27272e-06
-1.21963e-06
-2.48385e-07
1.36262e-06
-6.94268e-07
2.51707e-06
-1.16484e-06
2.75685e-06
-1.58909e-06
2.60109e-06
-1.94599e-06
2.29643e-06
-2.23354e-06
1.93459e-06
-2.45631e-06
1.54926e-06
-2.62059e-06
1.15416e-06
-2.73195e-06
7.54312e-07
-2.79384e-06
3.4967e-07
-2.80656e-06
-6.30154e-08
-2.76666e-06
-4.88619e-07
-2.66641e-06
-9.31962e-07
-2.49386e-06
-1.39553e-06
-2.23379e-06
-1.87578e-06
-1.87115e-06
-2.3557e-06
-1.39991e-06
-2.78679e-06
-8.4428e-07
-3.04201e-06
-3.01731e-07
-2.81527e-06
-1.52136e-06
-3.10702e-07
1.67332e-06
-8.57206e-07
3.06357e-06
-1.41802e-06
3.31767e-06
-1.9071e-06
3.09017e-06
-2.30468e-06
2.694e-06
-2.61497e-06
2.24488e-06
-2.84938e-06
1.78368e-06
-3.02018e-06
1.32495e-06
-3.13754e-06
8.71671e-07
-3.208e-06
4.20136e-07
-3.23345e-06
-3.75654e-08
-3.2102e-06
-5.11876e-07
-3.12804e-06
-1.01412e-06
-2.96944e-06
-1.55413e-06
-2.70952e-06
-2.13571e-06
-2.31902e-06
-2.7462e-06
-1.77563e-06
-3.33018e-06
-1.0952e-06
-3.72244e-06
-3.98703e-07
-3.51176e-06
-1.92006e-06
-4.01635e-07
2.07496e-06
-1.08482e-06
3.74675e-06
-1.75706e-06
3.98991e-06
-2.31605e-06
3.64915e-06
-2.74885e-06
3.1268e-06
-3.07143e-06
2.56746e-06
-3.30611e-06
2.01835e-06
-3.47377e-06
1.49262e-06
-3.59089e-06
9.8879e-07
-3.66827e-06
4.97515e-07
-3.71028e-06
4.44192e-09
-3.71387e-06
-5.08287e-07
-3.66696e-06
-1.06102e-06
-3.54613e-06
-1.67496e-06
-3.31413e-06
-2.36772e-06
-2.92012e-06
-3.1402e-06
-2.3113e-06
-3.939e-06
-1.47687e-06
-4.55688e-06
-5.5672e-07
-4.43191e-06
-2.47678e-06
-5.42702e-07
2.61766e-06
-1.41565e-06
4.6197e-06
-2.22175e-06
4.79601e-06
-2.84725e-06
4.27466e-06
-3.29829e-06
3.57785e-06
-3.61168e-06
2.88085e-06
-3.82611e-06
2.23279e-06
-3.97409e-06
1.64059e-06
-4.07989e-06
1.09459e-06
-4.15956e-06
5.77189e-07
-4.22104e-06
6.59166e-08
-4.26343e-06
-4.6589e-07
-4.27481e-06
-1.04964e-06
-4.22765e-06
-1.72213e-06
-4.07181e-06
-2.52355e-06
-3.72745e-06
-3.48457e-06
-3.08974e-06
-4.57671e-06
-2.08285e-06
-5.56377e-06
-8.34656e-07
-5.6801e-06
-3.31144e-06
-7.76018e-07
3.39368e-06
-1.91391e-06
5.7576e-06
-2.8663e-06
5.7484e-06
-3.53204e-06
4.9404e-06
-3.96097e-06
4.00677e-06
-4.22421e-06
3.14409e-06
-4.38315e-06
2.39173e-06
-4.48417e-06
1.74161e-06
-4.5598e-06
1.17022e-06
-4.63137e-06
6.48764e-07
-4.71108e-06
1.45624e-07
-4.80228e-06
-3.74688e-07
-4.89711e-06
-9.54808e-07
-4.96973e-06
-1.64951e-06
-4.96272e-06
-2.53055e-06
-4.76561e-06
-3.68168e-06
-4.19694e-06
-5.14537e-06
-3.04781e-06
-6.71291e-06
-1.33986e-06
-7.38804e-06
-4.6513e-06
-1.17818e-06
4.57185e-06
-2.66622e-06
7.24564e-06
-3.72505e-06
6.80723e-06
-4.34302e-06
5.55837e-06
-4.65841e-06
4.32217e-06
-4.79309e-06
3.27876e-06
-4.83519e-06
2.43383e-06
-4.84377e-06
1.75019e-06
-4.85671e-06
1.18316e-06
-4.8981e-06
6.90157e-07
-4.98337e-06
2.30894e-07
-5.12158e-06
-2.36478e-07
-5.31412e-06
-7.62275e-07
-5.54716e-06
-1.41647e-06
-5.77204e-06
-2.30568e-06
-5.86392e-06
-3.58981e-06
-5.55794e-06
-5.45135e-06
-4.42842e-06
-7.84243e-06
-2.19686e-06
-9.6196e-06
-6.84816e-06
-1.85466e-06
6.42651e-06
-3.67727e-06
9.06824e-06
-4.60733e-06
7.73729e-06
-4.92352e-06
5.87456e-06
-4.91889e-06
4.31754e-06
-4.77304e-06
3.13291e-06
-4.59114e-06
2.25193e-06
-4.43224e-06
1.59129e-06
-4.32832e-06
1.07925e-06
-4.29781e-06
6.59643e-07
-4.35399e-06
2.87078e-07
-4.50966e-06
-8.08156e-08
-4.77821e-06
-4.93724e-07
-5.16897e-06
-1.0257e-06
-5.66796e-06
-1.80669e-06
-6.18384e-06
-3.07393e-06
-6.42822e-06
-5.20696e-06
-5.75019e-06
-8.52047e-06
-3.31709e-06
-1.20527e-05
-1.01652e-05
-2.80207e-06
9.22859e-06
-4.29259e-06
1.05588e-05
-4.25005e-06
7.69475e-06
-3.63837e-06
5.26288e-06
-2.91629e-06
3.59545e-06
-2.24895e-06
2.46557e-06
-1.69714e-06
1.70012e-06
-1.27889e-06
1.17304e-06
-9.9388e-07
7.94234e-07
-8.37929e-07
5.03693e-07
-8.11095e-07
2.60244e-07
-9.22226e-07
3.03149e-08
-1.19259e-06
-2.23362e-07
-1.65859e-06
-5.59693e-07
-2.36766e-06
-1.09763e-06
-3.34334e-06
-2.09825e-06
-4.45382e-06
-4.09647e-06
-5.08585e-06
-7.88845e-06
-3.78045e-06
-1.33581e-05
-1.39457e-05
-2.70572e-06
1.19343e-05
-7.66478e-07
8.61952e-06
2.14345e-06
4.78482e-06
4.50461e-06
2.90172e-06
6.25794e-06
1.84213e-06
7.54544e-06
1.17807e-06
8.47849e-06
7.67068e-07
9.14014e-06
5.11395e-07
9.59132e-06
3.43045e-07
9.87223e-06
2.22786e-07
1.00043e-05
1.28197e-07
9.99075e-06
4.3847e-08
9.81295e-06
-4.55665e-08
9.41806e-06
-1.64806e-07
8.69309e-06
-3.72658e-07
7.42772e-06
-8.32874e-07
5.32823e-06
-1.99698e-06
2.25762e-06
-4.81784e-06
-7.30752e-07
-1.03697e-05
-1.46764e-05
1.19343e-05
2.05538e-05
2.53386e-05
2.82404e-05
3.00825e-05
3.12606e-05
3.20276e-05
3.2539e-05
3.28821e-05
3.31049e-05
3.32331e-05
3.32769e-05
3.32313e-05
3.30665e-05
3.26939e-05
3.1861e-05
2.9864e-05
2.50462e-05
1.46764e-05
)
;

boundaryField
{
    movingWall
    {
        type            calculated;
        value           uniform 0;
    }
    fixedWalls
    {
        type            calculated;
        value           uniform 0;
    }
    frontAndBack
    {
        type            empty;
        value           nonuniform 0();
    }
}


// ************************************************************************* //
