/*--------------------------------*- C++ -*----------------------------------*\
  =========                 |
  \\      /  F ield         | OpenFOAM: The Open Source CFD Toolbox
   \\    /   O peration     | Website:  https://openfoam.org
    \\  /    A nd           | Version:  6
     \\/     M anipulation  |
\*---------------------------------------------------------------------------*/
FoamFile
{
    version     2.0;
    format      ascii;
    class       volScalarField;
    location    "0.055";
    object      p;
}
// * * * * * * * * * * * * * * * * * * * * * * * * * * * * * * * * * * * * * //

dimensions      [0 2 -2 0 0 0 0];

internalField   nonuniform List<scalar> 
400
(
4.20871e-08
-0.00526146
-0.0116646
-0.0163905
-0.0178644
-0.0154079
-0.00899027
0.000960755
0.0137025
0.0282743
0.0435681
0.0583938
0.0715541
0.08194
0.0886557
0.0911745
0.0895281
0.0845079
0.0778779
0.0725897
0.00520551
-0.000213637
-0.00522446
-0.00841903
-0.00904768
-0.00663228
-0.00112048
0.00718039
0.0177045
0.0296974
0.0422738
0.0544767
0.0653469
0.0740076
0.0797656
0.0822307
0.0814534
0.078002
0.0727906
0.0673647
0.0120002
0.0044715
-0.000972384
-0.00390628
-0.0043589
-0.00208396
0.00290519
0.0103158
0.0196574
0.0302861
0.0414432
0.0523015
0.0620238
0.069835
0.0751049
0.0774447
0.0768291
0.0735924
0.0678884
0.0603248
0.0180399
0.00760867
0.000799833
-0.00258693
-0.00322886
-0.00108975
0.00371691
0.0108538
0.0198386
0.0300684
0.0408385
0.0513727
0.0608692
0.0685604
0.0737825
0.0760624
0.0752506
0.071473
0.0642721
0.0537044
0.0218367
0.00831257
-0.000145142
-0.00419228
-0.00507166
-0.00293354
0.00200206
0.00933047
0.0185465
0.0290531
0.0401605
0.0511007
0.0610588
0.0692209
0.0748337
0.0772905
0.0762886
0.0717585
0.0627139
0.0488506
0.0222826
0.00555967
-0.00464566
-0.00936293
-0.0103629
-0.00797086
-0.00251817
0.00550855
0.0155615
0.0270263
0.0392024
0.0512997
0.0624549
0.0717654
0.0783401
0.0813898
0.0804221
0.0751611
0.0641126
0.0467052
0.018374
-0.0016912
-0.013655
-0.0189092
-0.0197701
-0.0167479
-0.0102968
-0.000998458
0.0105445
0.0236887
0.0377096
0.0517789
0.0649611
0.0762313
0.0845147
0.0887828
0.0882965
0.0825249
0.0694104
0.0481253
0.00901766
-0.0145878
-0.0282403
-0.0337481
-0.0340528
-0.029888
-0.0218532
-0.010638
0.00309577
0.0186772
0.0353618
0.052284
0.0684299
0.0826309
0.0935848
0.0999564
0.100674
0.094854
0.0797244
0.0541281
-0.0071211
-0.034514
-0.0496795
-0.054968
-0.054102
-0.0481108
-0.0377769
-0.0239113
-0.00723019
0.0115858
0.0317959
0.052522
0.0726875
0.0909772
0.105827
0.115517
0.118523
0.113445
0.0965283
0.0661099
-0.0317593
-0.0632152
-0.0795348
-0.0838448
-0.0809086
-0.0721706
-0.0586491
-0.0412898
-0.0208449
0.00203308
0.0266571
0.0521902
0.0775416
0.101277
0.121557
0.136198
0.143071
0.140011
0.121848
0.0860787
-0.0671838
-0.102962
-0.119731
-0.121828
-0.115483
-0.102733
-0.0848988
-0.0630663
-0.0379849
-0.0102136
0.0196972
0.051044
0.082815
0.113534
0.141116
0.162857
0.175852
0.176824
0.15852
0.11697
-0.116584
-0.15681
-0.17265
-0.170491
-0.158706
-0.140174
-0.116583
-0.089136
-0.0585064
-0.0250551
0.0109273
0.0490108
0.0884146
0.12777
0.164855
0.196462
0.218749
0.226895
0.210556
0.163154
-0.18473
-0.229022
-0.241234
-0.231394
-0.211075
-0.184276
-0.153075
-0.118706
-0.0816242
-0.0418336
0.000807266
0.0463348
0.0944199
0.144048
0.193104
0.238029
0.273998
0.294175
0.283716
0.231359
-0.279436
-0.325808
-0.329023
-0.305769
-0.272245
-0.233768
-0.192664
-0.14996
-0.105644
-0.0591225
-0.0095951
0.0436837
0.101126
0.162432
0.226025
0.288417
0.344026
0.383704
0.386377
0.332494
-0.414694
-0.456429
-0.439865
-0.393724
-0.340213
-0.285647
-0.23206
-0.179747
-0.127786
-0.0746504
-0.0186003
0.0420895
0.108904
0.182729
0.263189
0.347718
0.430814
0.50139
0.530731
0.485199
-0.616344
-0.63432
-0.576937
-0.492957
-0.410243
-0.334485
-0.266077
-0.203542
-0.14434
-0.0855632
-0.0242369
0.0425946
0.117807
0.203991
0.302886
0.414299
0.534694
0.652956
0.733544
0.721428
-0.932434
-0.877353
-0.740973
-0.597768
-0.474554
-0.372623
-0.288211
-0.216251
-0.151545
-0.0892905
-0.0250425
0.0455361
0.12693
0.223931
0.34151
0.484029
0.653105
0.841903
1.01588
1.09577
-1.47294
-1.20812
-0.920964
-0.69223
-0.518618
-0.38864
-0.290448
-0.212758
-0.146512
-0.0846791
-0.0213683
0.0490009
0.13245
0.236228
0.369674
0.544489
0.772135
1.0598
1.40543
1.72692
-2.53134
-1.63965
-1.0472
-0.712814
-0.498108
-0.354234
-0.255901
-0.183884
-0.125278
-0.0715669
-0.0163258
0.0463203
0.122945
0.22234
0.357907
0.550375
0.827867
1.23908
1.92138
2.9148
-4.34995
-2.04946
-0.976126
-0.566307
-0.362067
-0.244337
-0.173425
-0.125702
-0.0877576
-0.052119
-0.0137751
0.0316732
0.0893083
0.166637
0.277054
0.445952
0.720671
1.22764
2.41537
4.83031
)
;

boundaryField
{
    movingWall
    {
        type            zeroGradient;
    }
    fixedWalls
    {
        type            zeroGradient;
    }
    frontAndBack
    {
        type            empty;
    }
}


// ************************************************************************* //
