/*--------------------------------*- C++ -*----------------------------------*\
  =========                 |
  \\      /  F ield         | OpenFOAM: The Open Source CFD Toolbox
   \\    /   O peration     | Website:  https://openfoam.org
    \\  /    A nd           | Version:  6
     \\/     M anipulation  |
\*---------------------------------------------------------------------------*/
FoamFile
{
    version     2.0;
    format      ascii;
    class       surfaceScalarField;
    location    "0.055";
    object      phi;
}
// * * * * * * * * * * * * * * * * * * * * * * * * * * * * * * * * * * * * * //

dimensions      [0 3 -1 0 0 0 0];

internalField   nonuniform List<scalar> 
760
(
1.23726e-08
-1.2373e-08
-2.19883e-08
3.43611e-08
-1.0696e-07
8.49718e-08
-2.27117e-07
1.20157e-07
-3.64365e-07
1.37248e-07
-5.01766e-07
1.37401e-07
-6.24864e-07
1.23098e-07
-7.22167e-07
9.73035e-08
-7.85206e-07
6.30385e-08
-8.08519e-07
2.33131e-08
-7.89736e-07
-1.87823e-08
-7.29786e-07
-5.99501e-08
-6.33183e-07
-9.66032e-08
-5.08295e-07
-1.24887e-07
-3.67436e-07
-1.4086e-07
-2.26536e-07
-1.409e-07
-1.04092e-07
-1.22444e-07
-1.90693e-08
-8.50227e-08
1.36399e-08
-3.2709e-08
1.364e-08
-3.2149e-08
1.9776e-08
-1.66795e-07
1.69007e-07
-3.98893e-07
3.1707e-07
-7.00093e-07
4.21357e-07
-1.03427e-06
4.71429e-07
-1.36515e-06
4.68282e-07
-1.66026e-06
4.18205e-07
-1.89291e-06
3.29956e-07
-2.04312e-06
2.13243e-07
-2.09801e-06
7.82061e-08
-2.05224e-06
-6.45549e-08
-1.90841e-06
-2.03782e-07
-1.67755e-06
-3.27458e-07
-1.37941e-06
-4.23033e-07
-1.0421e-06
-4.78164e-07
-7.00814e-07
-4.8219e-07
-3.94722e-07
-4.28537e-07
-1.61708e-07
-3.18036e-07
-2.95555e-08
-1.64862e-07
-1.59154e-08
-8.48258e-08
1.04602e-07
-3.27347e-07
4.11529e-07
-6.99703e-07
6.89425e-07
-1.15895e-06
8.80602e-07
-1.65558e-06
9.68056e-07
-2.14049e-06
9.53192e-07
-2.56955e-06
8.47267e-07
-2.90625e-06
6.66654e-07
-3.12307e-06
4.30071e-07
-3.20231e-06
1.5744e-07
-3.13659e-06
-1.3027e-07
-2.92954e-06
-4.10829e-07
-2.59632e-06
-6.60684e-07
-2.16386e-06
-8.5549e-07
-1.6704e-06
-9.71621e-07
-1.16357e-06
-9.89026e-07
-6.96471e-07
-8.95632e-07
-3.21453e-07
-6.93054e-07
-8.13718e-08
-4.04943e-07
-9.72871e-08
-1.33075e-07
2.37677e-07
-4.81719e-07
7.60173e-07
-9.91188e-07
1.19889e-06
-1.60016e-06
1.48957e-06
-2.24541e-06
1.61331e-06
-2.86706e-06
1.57484e-06
-3.4124e-06
1.39261e-06
-3.83826e-06
1.09252e-06
-4.11225e-06
7.04063e-07
-4.21344e-06
2.58627e-07
-4.13293e-06
-2.1078e-07
-3.87454e-06
-6.69214e-07
-3.45556e-06
-1.07967e-06
-2.90723e-06
-1.40382e-06
-2.27454e-06
-1.60431e-06
-1.61456e-06
-1.64901e-06
-9.92698e-07
-1.51749e-06
-4.76744e-07
-1.20901e-06
-1.29109e-07
-7.52578e-07
-2.26396e-07
-1.78122e-07
4.15799e-07
-6.31247e-07
1.2133e-06
-1.27725e-06
1.8449e-06
-2.03395e-06
2.24627e-06
-2.82315e-06
2.40251e-06
-3.57457e-06
2.32626e-06
-4.22847e-06
2.0465e-06
-4.73696e-06
1.60101e-06
-5.06452e-06
1.03162e-06
-5.1881e-06
3.82207e-07
-5.09743e-06
-3.01445e-07
-4.7957e-06
-9.70943e-07
-4.3006e-06
-1.57477e-06
-3.64544e-06
-2.05898e-06
-2.87982e-06
-2.36993e-06
-2.06892e-06
-2.45991e-06
-1.29073e-06
-2.29568e-06
-6.3074e-07
-1.869e-06
-1.74514e-07
-1.2088e-06
-4.0091e-07
-2.22798e-07
6.38596e-07
-7.81862e-07
1.77236e-06
-1.56688e-06
2.62991e-06
-2.47281e-06
3.15221e-06
-3.40529e-06
3.33499e-06
-4.28369e-06
3.20466e-06
-5.04233e-06
2.80514e-06
-5.63024e-06
2.18892e-06
-6.01026e-06
1.41164e-06
-6.15817e-06
5.30119e-07
-6.0624e-06
-3.97216e-07
-5.72459e-06
-1.30875e-06
-5.16112e-06
-2.13824e-06
-4.40521e-06
-2.81489e-06
-3.50905e-06
-3.26609e-06
-2.5449e-06
-3.42406e-06
-1.60395e-06
-3.23663e-06
-7.91932e-07
-2.68102e-06
-2.21274e-07
-1.77946e-06
-6.22184e-07
-2.69803e-07
9.08399e-07
-9.398e-07
2.44236e-06
-1.86883e-06
3.55894e-06
-2.92667e-06
4.21005e-06
-4.00175e-06
4.41006e-06
-5.00359e-06
4.20651e-06
-5.86215e-06
3.6637e-06
-6.52535e-06
2.85212e-06
-6.95626e-06
1.84255e-06
-7.13067e-06
7.04528e-07
-7.03588e-06
-4.92006e-07
-6.67105e-06
-1.67357e-06
-6.04925e-06
-2.76005e-06
-5.2009e-06
-3.66324e-06
-4.17808e-06
-4.28891e-06
-3.05831e-06
-4.54384e-06
-1.94597e-06
-4.34897e-06
-9.69604e-07
-3.65739e-06
-2.73159e-07
-2.47591e-06
-8.95343e-07
-3.21486e-07
1.22989e-06
-1.11041e-06
3.23128e-06
-2.18951e-06
4.63804e-06
-3.40019e-06
5.42073e-06
-4.61304e-06
5.62292e-06
-5.72922e-06
5.32268e-06
-6.67698e-06
4.61146e-06
-7.40625e-06
3.58139e-06
-7.883e-06
2.3193e-06
-8.08483e-06
9.06351e-07
-7.99843e-06
-5.78407e-07
-7.61954e-06
-2.05246e-06
-6.95549e-06
-3.4241e-06
-6.03028e-06
-4.58844e-06
-4.8917e-06
-5.42749e-06
-3.6189e-06
-5.81664e-06
-2.32801e-06
-5.63985e-06
-1.1724e-06
-4.813e-06
-3.33766e-07
-3.31454e-06
-1.22911e-06
-3.80013e-07
1.6099e-06
-1.29806e-06
4.14933e-06
-2.53218e-06
5.87216e-06
-3.89115e-06
6.7797e-06
-5.22787e-06
6.95964e-06
-6.43822e-06
6.53303e-06
-7.45334e-06
5.62658e-06
-8.22981e-06
4.35786e-06
-8.74051e-06
2.83e-06
-8.96753e-06
1.13338e-06
-8.89811e-06
-6.47833e-07
-8.52376e-06
-2.42681e-06
-7.84322e-06
-4.10463e-06
-6.86926e-06
-5.5624e-06
-5.63909e-06
-6.65766e-06
-4.22714e-06
-7.22858e-06
-2.7571e-06
-7.1099e-06
-1.40786e-06
-6.16223e-06
-4.06634e-07
-4.31577e-06
-1.63574e-06
-4.47937e-07
2.05784e-06
-1.50686e-06
5.20826e-06
-2.89696e-06
7.26225e-06
-4.38914e-06
8.27188e-06
-5.82039e-06
8.39088e-06
-7.08714e-06
7.79979e-06
-8.13056e-06
6.67e-06
-8.9207e-06
5.14801e-06
-9.44283e-06
3.35213e-06
-9.6874e-06
1.37794e-06
-9.64399e-06
-6.91237e-07
-9.29958e-06
-2.77122e-06
-8.64133e-06
-4.76288e-06
-7.6648e-06
-6.53893e-06
-6.38794e-06
-7.93452e-06
-4.87032e-06
-8.7462e-06
-3.2345e-06
-8.74572e-06
-1.68254e-06
-7.71419e-06
-4.95727e-07
-5.50258e-06
-2.13147e-06
-5.29285e-07
2.58712e-06
-1.74211e-06
6.42108e-06
-3.28102e-06
8.80116e-06
-4.87365e-06
9.86451e-06
-6.34635e-06
9.86358e-06
-7.60616e-06
9.0596e-06
-8.61493e-06
7.67877e-06
-9.36528e-06
5.89835e-06
-9.86182e-06
3.84867e-06
-1.01081e-05
1.62424e-06
-1.00988e-05
-7.00506e-07
-9.81682e-06
-3.05326e-06
-9.23511e-06
-5.34459e-06
-8.3257e-06
-7.44834e-06
-7.07632e-06
-9.1839e-06
-5.51683e-06
-1.03057e-05
-3.75331e-06
-1.05092e-05
-2.0022e-06
-9.4653e-06
-6.06311e-07
-6.89847e-06
-2.73778e-06
-6.3139e-07
3.21851e-06
-2.01208e-06
7.80177e-06
-3.67773e-06
1.04668e-05
-5.30974e-06
1.14965e-05
-6.73609e-06
1.12899e-05
-7.89095e-06
1.02145e-05
-8.7716e-06
8.55942e-06
-9.40433e-06
6.53108e-06
-9.82066e-06
4.265e-06
-1.00423e-05
1.84588e-06
-1.00723e-05
-6.70515e-07
-9.89086e-06
-3.2347e-06
-9.456e-06
-5.77944e-06
-8.71079e-06
-8.19355e-06
-7.60088e-06
-1.02938e-05
-6.10685e-06
-1.17997e-05
-4.29368e-06
-1.23224e-05
-2.37174e-06
-1.13872e-05
-7.46416e-07
-8.52379e-06
-3.4842e-06
-7.67927e-07
3.98644e-06
-2.3294e-06
9.36324e-06
-4.07217e-06
1.22096e-05
-5.63777e-06
1.30621e-05
-6.8812e-06
1.25334e-05
-7.78928e-06
1.11225e-05
-8.41342e-06
9.18356e-06
-8.8249e-06
6.94256e-06
-9.0884e-06
4.5285e-06
-9.24743e-06
2.00492e-06
-9.3164e-06
-6.01549e-07
-9.27593e-06
-3.27516e-06
-9.07105e-06
-5.98432e-06
-8.61431e-06
-8.65029e-06
-7.79971e-06
-1.11084e-05
-6.53649e-06
-1.3063e-05
-4.81284e-06
-1.40461e-05
-2.79321e-06
-1.34069e-05
-9.29151e-07
-1.03878e-05
-4.41335e-06
-9.63374e-07
4.94981e-06
-2.70884e-06
1.11087e-05
-4.42645e-06
1.39272e-05
-5.74974e-06
1.43854e-05
-6.60868e-06
1.33923e-05
-7.07871e-06
1.15926e-05
-7.28509e-06
9.38994e-06
-7.35156e-06
7.00903e-06
-7.37703e-06
4.55396e-06
-7.42641e-06
2.0543e-06
-7.52669e-06
-5.01269e-07
-7.66317e-06
-3.13869e-06
-7.77457e-06
-5.87291e-06
-7.74905e-06
-8.67581e-06
-7.42777e-06
-1.14297e-05
-6.6303e-06
-1.38604e-05
-5.22366e-06
-1.54527e-05
-3.25816e-06
-1.53724e-05
-1.17556e-06
-1.24704e-05
-5.58891e-06
-1.25668e-06
6.20649e-06
-3.15085e-06
1.30029e-05
-4.63927e-06
1.54156e-05
-5.43826e-06
1.51844e-05
-5.63352e-06
1.35876e-05
-5.43116e-06
1.13902e-05
-5.04225e-06
9.00103e-06
-4.63876e-06
6.60554e-06
-4.34419e-06
4.25938e-06
-4.23671e-06
1.94683e-06
-4.35314e-06
-3.8484e-07
-4.68808e-06
-2.80375e-06
-5.18644e-06
-5.37455e-06
-5.7299e-06
-8.13235e-06
-6.12288e-06
-1.10367e-05
-6.09427e-06
-1.3889e-05
-5.34877e-06
-1.61982e-05
-3.72213e-06
-1.6999e-05
-1.51412e-06
-1.46785e-05
-7.10303e-06
-1.68998e-06
7.89647e-06
-3.57763e-06
1.48905e-05
-4.44527e-06
1.62833e-05
-4.29469e-06
1.50338e-05
-3.47921e-06
1.27721e-05
-2.36325e-06
1.02742e-05
-1.22941e-06
7.86719e-06
-2.70181e-07
5.64632e-06
3.92719e-07
3.59648e-06
6.86543e-07
1.65301e-06
5.73209e-07
-2.71507e-07
4.54992e-08
-2.27604e-06
-8.64704e-07
-4.46435e-06
-2.0644e-06
-6.93266e-06
-3.36397e-06
-9.73714e-06
-4.43887e-06
-1.28141e-05
-4.82463e-06
-1.58124e-05
-4.02872e-06
-1.77949e-05
-1.95894e-06
-1.67482e-05
-9.06198e-06
-2.23698e-06
1.01335e-05
-3.64004e-06
1.62936e-05
-3.18824e-06
1.58315e-05
-1.52584e-06
1.33714e-05
6.36827e-07
1.06094e-05
2.81656e-06
8.09451e-06
4.7288e-06
5.95495e-06
6.2223e-06
4.15282e-06
7.22139e-06
2.59739e-06
7.68648e-06
1.18792e-06
7.59195e-06
-1.76974e-07
6.91821e-06
-1.6023e-06
5.65744e-06
-3.20359e-06
3.83713e-06
-5.11235e-06
1.56975e-06
-7.46975e-06
-8.64899e-07
-1.03795e-05
-2.9177e-06
-1.37596e-05
-3.71937e-06
-1.69933e-05
-2.41931e-06
-1.80483e-05
-1.14813e-05
-2.55443e-06
1.26879e-05
-2.21385e-06
1.5953e-05
6.39012e-07
1.29786e-05
4.33187e-06
9.67856e-06
7.92813e-06
7.01315e-06
1.1027e-05
4.99562e-06
1.34906e-05
3.4914e-06
1.52976e-05
2.34583e-06
1.64661e-05
1.42884e-06
1.70144e-05
6.39608e-07
1.69422e-05
-1.0475e-07
1.62229e-05
-8.82994e-07
1.48037e-05
-1.7844e-06
1.26176e-05
-2.92627e-06
9.62178e-06
-4.4739e-06
5.89048e-06
-6.64819e-06
1.80606e-06
-9.67522e-06
-1.60635e-06
-1.35808e-05
-2.44331e-06
-1.72113e-05
-1.39246e-05
-8.44343e-07
1.35322e-05
4.05337e-06
1.10553e-05
1.02545e-05
6.77744e-06
1.57119e-05
4.22115e-06
2.00281e-05
2.69698e-06
2.32771e-05
1.74662e-06
2.56322e-05
1.13628e-06
2.72543e-05
7.23801e-07
2.8261e-05
4.2212e-07
2.87228e-05
1.77809e-07
2.86636e-05
-4.55931e-08
2.806e-05
-2.79339e-07
2.68351e-05
-5.59558e-07
2.48493e-05
-9.40428e-07
2.18916e-05
-1.51616e-06
1.77013e-05
-2.45793e-06
1.20997e-05
-4.07364e-06
5.42833e-06
-6.90944e-06
-2.02508e-07
-1.15805e-05
-1.41271e-05
1.35322e-05
2.45875e-05
3.1365e-05
3.55861e-05
3.82831e-05
4.00297e-05
4.1166e-05
4.18898e-05
4.23119e-05
4.24897e-05
4.24441e-05
4.21648e-05
4.16052e-05
4.06648e-05
3.91486e-05
3.66907e-05
3.26171e-05
2.57076e-05
1.41271e-05
)
;

boundaryField
{
    movingWall
    {
        type            calculated;
        value           uniform 0;
    }
    fixedWalls
    {
        type            calculated;
        value           uniform 0;
    }
    frontAndBack
    {
        type            empty;
        value           nonuniform 0();
    }
}


// ************************************************************************* //
