/*--------------------------------*- C++ -*----------------------------------*\
  =========                 |
  \\      /  F ield         | OpenFOAM: The Open Source CFD Toolbox
   \\    /   O peration     | Website:  https://openfoam.org
    \\  /    A nd           | Version:  6
     \\/     M anipulation  |
\*---------------------------------------------------------------------------*/
FoamFile
{
    version     2.0;
    format      ascii;
    class       volVectorField;
    location    "0.055";
    object      U;
}
// * * * * * * * * * * * * * * * * * * * * * * * * * * * * * * * * * * * * * //

dimensions      [0 1 -1 0 0 0 0];

internalField   nonuniform List<vector> 
400
(
(0.000220812 -0.000217769 0)
(0.000100094 0.000119166 0)
(-0.00112029 0.000532103 0)
(-0.00323664 0.000820513 0)
(-0.00588185 0.00096252 0)
(-0.00869424 0.000973021 0)
(-0.011355 0.000875267 0)
(-0.0136025 0.000693735 0)
(-0.0152363 0.00045136 0)
(-0.0161167 0.000169704 0)
(-0.0161647 -0.000129635 0)
(-0.015365 -0.000423496 0)
(-0.0137711 -0.000686065 0)
(-0.0115115 -0.000888607 0)
(-0.00879403 -0.00100036 0)
(-0.00590493 -0.000991258 0)
(-0.00319594 -0.000837418 0)
(-0.00105568 -0.000529973 0)
(0.000145616 -0.000103111 0)
(0.00023434 0.000229284 0)
(-8.64247e-05 -0.00012697 0)
(-0.00150996 0.00154339 0)
(-0.00524961 0.0033355 0)
(-0.0107528 0.00460985 0)
(-0.0172807 0.00523529 0)
(-0.0240935 0.00523444 0)
(-0.0304935 0.00468973 0)
(-0.0358816 0.00370772 0)
(-0.0397878 0.00240167 0)
(-0.0418817 0.000886902 0)
(-0.0419791 -0.00071718 0)
(-0.0400506 -0.00228348 0)
(-0.036231 -0.00367496 0)
(-0.0308279 -0.00474631 0)
(-0.024324 -0.00535164 0)
(-0.0173632 -0.00536111 0)
(-0.0107047 -0.00468944 0)
(-0.00514107 -0.00333782 0)
(-0.00142359 -0.00148509 0)
(-5.80965e-05 0.000176016 0)
(-0.000495736 0.00103494 0)
(-0.00341749 0.00529072 0)
(-0.00970293 0.00936545 0)
(-0.0182834 0.0122279 0)
(-0.0280899 0.0135864 0)
(-0.0381323 0.0134549 0)
(-0.0474689 0.0119992 0)
(-0.0552824 0.00946021 0)
(-0.0609272 0.00611079 0)
(-0.0639483 0.00223959 0)
(-0.0640923 -0.00185022 0)
(-0.0613191 -0.00583695 0)
(-0.0558143 -0.00937882 0)
(-0.0479991 -0.0121214 0)
(-0.038531 -0.0137194 0)
(-0.0282834 -0.0138795 0)
(-0.01828 -0.0124268 0)
(-0.00958838 -0.00939572 0)
(-0.00330762 -0.00517798 0)
(-0.000456157 -0.000924093 0)
(-0.000859049 0.00322329 0)
(-0.00522766 0.0112256 0)
(-0.0140287 0.0182263 0)
(-0.0255767 0.0229795 0)
(-0.038432 0.0250994 0)
(-0.0513773 0.0246282 0)
(-0.0632838 0.0218486 0)
(-0.0731819 0.0171725 0)
(-0.0803109 0.0110734 0)
(-0.0841352 0.00405742 0)
(-0.084354 -0.00334198 0)
(-0.0809132 -0.0105595 0)
(-0.0740207 -0.0169972 0)
(-0.0641604 -0.0220383 0)
(-0.0520994 -0.0250854 0)
(-0.0388729 -0.0256321 0)
(-0.0257171 -0.0233717 0)
(-0.0139622 -0.0183336 0)
(-0.00511109 -0.0110678 0)
(-0.000809302 -0.00303455 0)
(-0.00118494 0.006339 0)
(-0.0069518 0.0192451 0)
(-0.0182573 0.0297817 0)
(-0.0327552 0.0366435 0)
(-0.0485932 0.0394626 0)
(-0.064319 0.0383875 0)
(-0.0786386 0.0338731 0)
(-0.0904685 0.026543 0)
(-0.0989726 0.0171028 0)
(-0.103565 0.00630099 0)
(-0.103911 -0.00507634 0)
(-0.0999355 -0.0161975 0)
(-0.0918419 -0.0261809 0)
(-0.0801351 -0.0341114 0)
(-0.0656447 -0.0390922 0)
(-0.0495293 -0.0403447 0)
(-0.0332233 -0.0373578 0)
(-0.0183445 -0.0300711 0)
(-0.00686613 -0.0190913 0)
(-0.00112983 -0.00606823 0)
(-0.00150199 0.010343 0)
(-0.00867615 0.0293517 0)
(-0.0225342 0.0440736 0)
(-0.0400305 0.0532579 0)
(-0.0588617 0.0566795 0)
(-0.0773291 0.0546971 0)
(-0.0939881 0.0480153 0)
(-0.107671 0.0375216 0)
(-0.1175 0.0241832 0)
(-0.122866 0.00900597 0)
(-0.123411 -0.00696562 0)
(-0.119031 -0.0226283 0)
(-0.109897 -0.036804 0)
(-0.0964928 -0.0482501 0)
(-0.0796664 -0.0557184 0)
(-0.0606649 -0.0580783 0)
(-0.041114 -0.0545097 0)
(-0.0229508 -0.0447416 0)
(-0.00869095 -0.0293196 0)
(-0.00145321 -0.0100109 0)
(-0.00183696 0.0152554 0)
(-0.0104913 0.0416144 0)
(-0.027014 0.0611895 0)
(-0.0475948 0.0728876 0)
(-0.0694402 0.0767675 0)
(-0.0906013 0.0735284 0)
(-0.109506 0.0642228 0)
(-0.124942 0.0500632 0)
(-0.136032 0.0323073 0)
(-0.142173 0.0122215 0)
(-0.143002 -0.008903 0)
(-0.138375 -0.0297057 0)
(-0.128403 -0.0487165 0)
(-0.1135 -0.0643462 0)
(-0.0944718 -0.0749395 0)
(-0.0726053 -0.0789146 0)
(-0.0496938 -0.0750033 0)
(-0.0280168 -0.0625618 0)
(-0.0107159 -0.0419286 0)
(-0.00181533 -0.0149272 0)
(-0.00221346 0.0211473 0)
(-0.0124786 0.0561665 0)
(-0.0318252 0.081248 0)
(-0.0555717 0.0955824 0)
(-0.0803901 0.0996908 0)
(-0.104094 0.0947769 0)
(-0.125032 0.0823619 0)
(-0.142006 0.0640531 0)
(-0.154202 0.0414226 0)
(-0.161072 0.0159851 0)
(-0.162267 -0.0107545 0)
(-0.157607 -0.0372189 0)
(-0.147102 -0.0616745 0)
(-0.131036 -0.0821842 0)
(-0.110092 -0.0966341 0)
(-0.0855094 -0.102877 0)
(-0.0591913 -0.0990158 0)
(-0.0337562 -0.0838147 0)
(-0.0130676 -0.0571998 0)
(-0.00225112 -0.0209563 0)
(-0.00265492 0.0281341 0)
(-0.0147129 0.0731941 0)
(-0.0370629 0.104371 0)
(-0.0639919 0.121327 0)
(-0.0915898 0.125288 0)
(-0.117476 0.118178 0)
(-0.140002 0.102133 0)
(-0.158087 0.0792321 0)
(-0.171063 0.0513753 0)
(-0.178511 0.0202928 0)
(-0.180136 -0.0123595 0)
(-0.175721 -0.0448605 0)
(-0.165147 -0.0752774 0)
(-0.148484 -0.101354 0)
(-0.126179 -0.120485 0)
(-0.0992898 -0.129835 0)
(-0.0697084 -0.126655 0)
(-0.0403411 -0.108812 0)
(-0.0158696 -0.0755085 0)
(-0.00279778 -0.0283084 0)
(-0.00319205 0.0363763 0)
(-0.0172796 0.0929213 0)
(-0.0427997 0.130636 0)
(-0.0727811 0.149952 0)
(-0.102694 0.153161 0)
(-0.130058 0.143185 0)
(-0.153369 0.122957 0)
(-0.171807 0.0951009 0)
(-0.184981 0.0618395 0)
(-0.19269 0.025057 0)
(-0.194754 -0.0135382 0)
(-0.190938 -0.0521964 0)
(-0.180956 -0.0888966 0)
(-0.164582 -0.121142 0)
(-0.141873 -0.145843 0)
(-0.113511 -0.159362 0)
(-0.0811661 -0.157837 0)
(-0.047891 -0.137819 0)
(-0.019254 -0.0972995 0)
(-0.00350231 -0.037268 0)
(-0.00387685 0.0460968 0)
(-0.0203062 0.1156 0)
(-0.0491071 0.160004 0)
(-0.0817445 0.181022 0)
(-0.113074 0.18253 0)
(-0.140697 0.16883 0)
(-0.163481 0.143847 0)
(-0.181069 0.110813 0)
(-0.193507 0.0722368 0)
(-0.200931 0.0300547 0)
(-0.20335 -0.0141118 0)
(-0.200541 -0.0586478 0)
(-0.192039 -0.101613 0)
(-0.177235 -0.140416 0)
(-0.155625 -0.17156 0)
(-0.127247 -0.190546 0)
(-0.0932215 -0.19211 0)
(-0.0564575 -0.170937 0)
(-0.0233826 -0.123055 0)
(-0.00443522 -0.0482094 0)
(-0.00480792 0.0576267 0)
(-0.0240117 0.14151 0)
(-0.0560723 0.192227 0)
(-0.0905134 0.213657 0)
(-0.121696 0.212045 0)
(-0.147642 0.193541 0)
(-0.167921 0.163265 0)
(-0.182901 0.125072 0)
(-0.19325 0.0816611 0)
(-0.199559 0.0348739 0)
(-0.202107 -0.0139369 0)
(-0.200736 -0.0634974 0)
(-0.194812 -0.112176 0)
(-0.183289 -0.157521 0)
(-0.164942 -0.195816 0)
(-0.138853 -0.221745 0)
(-0.10512 -0.2284 0)
(-0.0659809 -0.207922 0)
(-0.0284775 -0.153244 0)
(-0.00571474 -0.0616383 0)
(-0.00617576 0.0715047 0)
(-0.028774 0.170949 0)
(-0.0637748 0.226667 0)
(-0.0983888 0.246281 0)
(-0.126872 0.239532 0)
(-0.148246 0.214958 0)
(-0.163248 0.179005 0)
(-0.17326 0.136058 0)
(-0.179735 0.0888332 0)
(-0.183809 0.0388724 0)
(-0.18609 -0.0129503 0)
(-0.186545 -0.065932 0)
(-0.184429 -0.11902 0)
(-0.178281 -0.170225 0)
(-0.166069 -0.215946 0)
(-0.145618 -0.250298 0)
(-0.115414 -0.264649 0)
(-0.0761713 -0.247883 0)
(-0.0348531 -0.188231 0)
(-0.00754862 -0.0782751 0)
(-0.00833668 0.0886526 0)
(-0.0351931 0.20416 0)
(-0.0721174 0.261957 0)
(-0.103928 0.276211 0)
(-0.125729 0.261678 0)
(-0.138472 0.229756 0)
(-0.144612 0.188132 0)
(-0.146792 0.141448 0)
(-0.147307 0.092133 0)
(-0.147824 0.0411823 0)
(-0.149279 -0.0112166 0)
(-0.151814 -0.0651388 0)
(-0.154694 -0.120376 0)
(-0.156191 -0.175775 0)
(-0.153553 -0.228363 0)
(-0.143209 -0.272226 0)
(-0.121432 -0.297318 0)
(-0.0861977 -0.288762 0)
(-0.0429066 -0.228045 0)
(-0.0102951 -0.0991911 0)
(-0.0118924 0.110632 0)
(-0.0440151 0.241028 0)
(-0.0802238 0.295329 0)
(-0.103959 0.299062 0)
(-0.113177 0.273718 0)
(-0.112037 0.233608 0)
(-0.105191 0.187141 0)
(-0.0965565 0.138631 0)
(-0.0890892 0.0897935 0)
(-0.0847867 0.0408114 0)
(-0.0847894 -0.00895746 0)
(-0.089429 -0.0604739 0)
(-0.0981496 -0.114544 0)
(-0.109285 -0.171199 0)
(-0.119751 -0.228718 0)
(-0.124821 -0.282088 0)
(-0.118257 -0.320811 0)
(-0.0938993 -0.326491 0)
(-0.0528835 -0.271821 0)
(-0.0144962 -0.125963 0)
(-0.017587 0.14003 0)
(-0.0553981 0.280204 0)
(-0.0846599 0.321341 0)
(-0.0914095 0.307958 0)
(-0.0800225 0.269298 0)
(-0.0591213 0.221522 0)
(-0.0355005 0.172494 0)
(-0.0138341 0.125272 0)
(0.00284537 0.0803465 0)
(0.0126779 0.0369009 0)
(0.0145992 -0.00652779 0)
(0.00814939 -0.0516974 0)
(-0.00649146 -0.100382 0)
(-0.0282056 -0.153953 0)
(-0.0543584 -0.212526 0)
(-0.0799798 -0.273215 0)
(-0.0968801 -0.326957 0)
(-0.0938835 -0.353688 0)
(-0.0638263 -0.316633 0)
(-0.0206271 -0.160888 0)
(-0.0252807 0.181325 0)
(-0.0660672 0.316829 0)
(-0.0748815 0.329301 0)
(-0.0509723 0.292399 0)
(-0.00998089 0.240677 0)
(0.0352189 0.188734 0)
(0.0771271 0.141693 0)
(0.1117 0.10026 0)
(0.136892 0.0633321 0)
(0.151686 0.029147 0)
(0.155502 -0.00431086 0)
(0.147896 -0.039225 0)
(0.128533 -0.0779535 0)
(0.0974535 -0.122959 0)
(0.055759 -0.176374 0)
(0.00692945 -0.238575 0)
(-0.0410983 -0.304672 0)
(-0.0734504 -0.357582 0)
(-0.0703711 -0.355027 0)
(-0.0277095 -0.207525 0)
(-0.0290013 0.238676 0)
(-0.0604812 0.335729 0)
(-0.0230274 0.299602 0)
(0.0483812 0.238488 0)
(0.124175 0.180929 0)
(0.19221 0.133278 0)
(0.248167 0.0954501 0)
(0.290891 0.0652789 0)
(0.320573 0.0403157 0)
(0.337704 0.0183594 0)
(0.342525 -0.00257397 0)
(0.334787 -0.0244508 0)
(0.313676 -0.0494767 0)
(0.277889 -0.0803768 0)
(0.226085 -0.120576 0)
(0.15807 -0.173775 0)
(0.0770998 -0.241721 0)
(-0.00472779 -0.317926 0)
(-0.0543964 -0.368104 0)
(-0.0277517 -0.26671 0)
(0.00963004 0.280947 0)
(0.0211705 0.294738 0)
(0.138391 0.210575 0)
(0.263144 0.142831 0)
(0.362281 0.0964128 0)
(0.437263 0.0649807 0)
(0.49262 0.0435099 0)
(0.531863 0.0283093 0)
(0.557776 0.0168326 0)
(0.572263 0.0073602 0)
(0.576282 -0.00137495 0)
(0.569853 -0.0105054 0)
(0.551997 -0.0213305 0)
(0.520571 -0.0356975 0)
(0.472105 -0.0565587 0)
(0.401799 -0.0886705 0)
(0.303209 -0.139064 0)
(0.172199 -0.215806 0)
(0.0424318 -0.311082 0)
(0.0200814 -0.298815 0)
(0.301016 0.145516 0)
(0.39785 0.127079 0)
(0.557507 0.0758767 0)
(0.67422 0.0435803 0)
(0.743272 0.0254506 0)
(0.786067 0.0151337 0)
(0.81394 0.00912064 0)
(0.832029 0.00544306 0)
(0.843189 0.00299423 0)
(0.849037 0.00115355 0)
(0.850332 -0.000459947 0)
(0.847179 -0.00214586 0)
(0.839037 -0.00424899 0)
(0.824502 -0.00732347 0)
(0.80082 -0.0124247 0)
(0.762758 -0.021652 0)
(0.69855 -0.0391243 0)
(0.583732 -0.0723859 0)
(0.417286 -0.127311 0)
(0.310282 -0.148815 0)
)
;

boundaryField
{
    movingWall
    {
        type            fixedValue;
        value           uniform (1 0 0);
    }
    fixedWalls
    {
        type            noSlip;
    }
    frontAndBack
    {
        type            empty;
    }
}


// ************************************************************************* //
