/*--------------------------------*- C++ -*----------------------------------*\
  =========                 |
  \\      /  F ield         | OpenFOAM: The Open Source CFD Toolbox
   \\    /   O peration     | Website:  https://openfoam.org
    \\  /    A nd           | Version:  6
     \\/     M anipulation  |
\*---------------------------------------------------------------------------*/
FoamFile
{
    version     2.0;
    format      ascii;
    class       volScalarField;
    location    "0.08";
    object      p;
}
// * * * * * * * * * * * * * * * * * * * * * * * * * * * * * * * * * * * * * //

dimensions      [0 2 -2 0 0 0 0];

internalField   nonuniform List<scalar> 
400
(
1.96189e-05
-0.0464167
-0.104248
-0.148907
-0.165652
-0.147859
-0.0950311
-0.011086
0.0970475
0.220493
0.349264
0.472977
0.581546
0.665932
0.719041
0.736856
0.719889
0.674901
0.616844
0.570407
0.0460498
-0.00165995
-0.0470559
-0.0778735
-0.0868177
-0.0692313
-0.0245178
0.0444915
0.132537
0.232709
0.337116
0.437516
0.525934
0.595324
0.640286
0.657903
0.648778
0.617677
0.572086
0.524415
0.107228
0.0411337
-0.00800341
-0.0364583
-0.0437454
-0.0273005
0.0128283
0.0738904
0.151267
0.239032
0.330447
0.41847
0.496271
0.557777
0.598211
0.614719
0.607247
0.578464
0.529076
0.463013
0.163704
0.0722406
0.0111071
-0.0213606
-0.0302392
-0.0148159
0.0238975
0.0826397
0.15675
0.240586
0.327866
0.41205
0.486744
0.546117
0.585302
0.600888
0.591828
0.558946
0.497429
0.405908
0.202519
0.0841894
0.00866675
-0.0295312
-0.0402403
-0.0243966
0.0159186
0.0766642
0.152793
0.238579
0.327821
0.414106
0.491087
0.55279
0.593885
0.610106
0.599284
0.560584
0.48448
0.365891
0.214403
0.0685877
-0.021968
-0.0657232
-0.0768714
-0.0579274
-0.0121563
0.0554069
0.139073
0.232765
0.330098
0.424514
0.509442
0.578475
0.625534
0.645249
0.634178
0.589873
0.498474
0.352038
0.191322
0.0171019
-0.0882619
-0.135972
-0.14469
-0.118658
-0.0625295
0.0174401
0.114712
0.222673
0.334591
0.443602
0.542731
0.624935
0.683143
0.710607
0.702361
0.654152
0.54763
0.37222
0.124648
-0.0794296
-0.198578
-0.247103
-0.248848
-0.210226
-0.137625
-0.0387771
0.0787683
0.207782
0.341144
0.471661
0.591906
0.694093
0.769958
0.811061
0.810503
0.761722
0.641085
0.434993
0.00367965
-0.232239
-0.363112
-0.407371
-0.395509
-0.336921
-0.240245
-0.114985
0.0302069
0.187529
0.349598
0.509036
0.658079
0.788218
0.889863
0.952523
0.966771
0.922826
0.790191
0.551157
-0.185812
-0.455887
-0.594663
-0.626741
-0.591756
-0.503379
-0.373193
-0.212768
-0.0318427
0.161443
0.359779
0.555973
0.742261
0.909626
1.04714
1.1419
1.18114
1.15047
1.00985
0.735298
-0.463529
-0.769905
-0.909514
-0.917006
-0.845211
-0.713949
-0.538587
-0.332964
-0.107655
0.129365
0.371494
0.612399
0.844951
1.06014
1.24594
1.38676
1.4656
1.46139
1.32024
1.00787
-0.857942
-1.20127
-1.3285
-1.2917
-1.16327
-0.971672
-0.736856
-0.474822
-0.196321
0.0917574
0.384544
0.677627
0.965565
1.24032
1.48943
1.69476
1.83414
1.87715
1.74942
1.39865
-1.41256
-1.78833
-1.87818
-1.76546
-1.55161
-1.2766
-0.965237
-0.63484
-0.294969
0.0500896
0.398722
0.749963
1.10163
1.44824
1.77838
2.07225
2.3022
2.42547
2.33734
1.95323
-2.19892
-2.58715
-2.59146
-2.35181
-2.01117
-1.62294
-1.21552
-0.805193
-0.39781
0.00725823
0.413729
0.82608
1.24752
1.67757
2.10855
2.52149
2.88466
3.14087
3.14235
2.74637
-3.34324
-3.6807
-3.5054
-3.05721
-2.532
-1.99417
-1.47068
-0.971685
-0.49507
-0.0320725
0.428885
0.900038
1.39258
1.91438
2.46597
3.03466
3.58988
4.06254
4.2504
3.90899
-5.07208
-5.18688
-4.6531
-3.87068
-3.08478
-2.3574
-1.70179
-1.11235
-0.572577
-0.0615925
0.442656
0.96235
1.51931
2.13385
2.82134
3.58539
4.40943
5.22607
5.78272
5.67369
-7.79206
-7.25838
-6.04832
-4.75514
-3.61714
-2.6628
-1.86939
-1.1996
-0.613742
-0.0746274
0.452256
1.00037
1.60412
2.30047
3.12856
4.12465
5.30908
6.64778
7.89497
8.45347
-12.4106
-10.0882
-7.60726
-5.58664
-4.01778
-2.82472
-1.91474
-1.19698
-0.599033
-0.0649168
0.451972
0.995266
1.61159
2.35692
3.30367
4.5428
6.16637
8.24591
10.7848
13.164
-21.2938
-13.7977
-8.77447
-5.85279
-3.92829
-2.61373
-1.69857
-1.02477
-0.488406
-0.0213475
0.427432
0.904025
1.4595
2.16206
3.11587
4.48019
6.46815
9.46665
14.5792
22.1773
-36.1737
-17.3692
-8.39951
-4.79896
-2.9311
-1.81879
-1.11846
-0.635047
-0.262059
0.0595268
0.369177
0.701183
1.09496
1.60935
2.35053
3.51505
5.45395
9.15162
18.2353
37.1547
)
;

boundaryField
{
    movingWall
    {
        type            zeroGradient;
    }
    fixedWalls
    {
        type            zeroGradient;
    }
    frontAndBack
    {
        type            empty;
    }
}


// ************************************************************************* //
