/*--------------------------------*- C++ -*----------------------------------*\
  =========                 |
  \\      /  F ield         | OpenFOAM: The Open Source CFD Toolbox
   \\    /   O peration     | Website:  https://openfoam.org
    \\  /    A nd           | Version:  6
     \\/     M anipulation  |
\*---------------------------------------------------------------------------*/
FoamFile
{
    version     2.0;
    format      ascii;
    class       volScalarField;
    location    "0.1";
    object      p;
}
// * * * * * * * * * * * * * * * * * * * * * * * * * * * * * * * * * * * * * //

dimensions      [0 2 -2 0 0 0 0];

internalField   nonuniform List<scalar> 
400
(
1.8059e-05
-0.0464194
-0.104252
-0.14891
-0.165655
-0.147862
-0.0950339
-0.0110891
0.0970441
0.22049
0.349261
0.472974
0.581544
0.66593
0.719039
0.736853
0.719885
0.674897
0.61684
0.570404
0.0460473
-0.00166268
-0.0470589
-0.0778768
-0.086821
-0.0692344
-0.0245206
0.0444889
0.132534
0.232706
0.337113
0.437513
0.525931
0.595321
0.640284
0.657901
0.648776
0.617674
0.572083
0.524412
0.107225
0.0411311
-0.00800617
-0.0364614
-0.0437488
-0.0273039
0.0128253
0.0738878
0.151264
0.239029
0.330444
0.418466
0.496268
0.557774
0.598209
0.614717
0.607244
0.578462
0.529073
0.463009
0.163702
0.0722381
0.0111046
-0.0213633
-0.0302424
-0.0148194
0.0238941
0.0826367
0.156747
0.240584
0.327863
0.412047
0.486741
0.546114
0.585299
0.600885
0.591826
0.558943
0.497426
0.405904
0.202516
0.0841867
0.0086643
-0.0295336
-0.040243
-0.0243998
0.015915
0.0766607
0.15279
0.238577
0.327819
0.414103
0.491084
0.552787
0.593882
0.610103
0.599281
0.560582
0.484478
0.365888
0.2144
0.0685847
-0.0219708
-0.0657255
-0.0768737
-0.0579301
-0.0121595
0.0554032
0.13907
0.232762
0.330096
0.424512
0.50944
0.578472
0.625531
0.645245
0.634175
0.58987
0.498471
0.352035
0.191319
0.0170988
-0.0882651
-0.135975
-0.144693
-0.11866
-0.0625321
0.0174368
0.114708
0.22267
0.334588
0.4436
0.542729
0.624933
0.68314
0.710603
0.702357
0.654148
0.547627
0.372217
0.124646
-0.0794326
-0.198582
-0.247106
-0.24885
-0.210228
-0.137627
-0.0387796
0.078765
0.207778
0.341141
0.471658
0.591904
0.694091
0.769956
0.811058
0.8105
0.761719
0.641082
0.434991
0.00367741
-0.232242
-0.363115
-0.407375
-0.395512
-0.336924
-0.240248
-0.114987
0.0302044
0.187526
0.349594
0.509032
0.658076
0.788216
0.889861
0.952521
0.966768
0.922823
0.790187
0.551154
-0.185814
-0.45589
-0.594666
-0.626744
-0.59176
-0.503382
-0.373195
-0.21277
-0.0318447
0.16144
0.359775
0.55597
0.742257
0.909623
1.04714
1.14189
1.18114
1.15047
1.00984
0.735294
-0.463532
-0.769908
-0.909517
-0.917009
-0.845214
-0.713953
-0.53859
-0.332967
-0.107657
0.129363
0.371492
0.612396
0.844947
1.06014
1.24593
1.38676
1.4656
1.46138
1.32023
1.00786
-0.857945
-1.20128
-1.3285
-1.2917
-1.16327
-0.971676
-0.73686
-0.474825
-0.196324
0.0917553
0.384542
0.677625
0.965562
1.24032
1.48943
1.69476
1.83414
1.87715
1.74941
1.39864
-1.41256
-1.78834
-1.87819
-1.76546
-1.55161
-1.2766
-0.96524
-0.634843
-0.294972
0.0500867
0.39872
0.749961
1.10162
1.44824
1.77838
2.07224
2.3022
2.42547
2.33734
1.95323
-2.19892
-2.58715
-2.59147
-2.35182
-2.01117
-1.62294
-1.21552
-0.805196
-0.397814
0.0072546
0.413726
0.826077
1.24751
1.67756
2.10854
2.52149
2.88466
3.14087
3.14235
2.74637
-3.34325
-3.6807
-3.50541
-3.05721
-2.532
-1.99418
-1.47068
-0.971688
-0.495074
-0.0320763
0.428881
0.900035
1.39257
1.91438
2.46597
3.03466
3.58988
4.06253
4.2504
3.90898
-5.07208
-5.18689
-4.6531
-3.87068
-3.08479
-2.35741
-1.70179
-1.11235
-0.572579
-0.0615958
0.442652
0.962347
1.51931
2.13384
2.82133
3.58539
4.40943
5.22607
5.78271
5.67369
-7.79206
-7.25838
-6.04832
-4.75514
-3.61715
-2.6628
-1.86939
-1.1996
-0.613744
-0.0746301
0.452253
1.00036
1.60412
2.30047
3.12856
4.12465
5.30907
6.64778
7.89497
8.45347
-12.4106
-10.0882
-7.60726
-5.58664
-4.01778
-2.82473
-1.91474
-1.19699
-0.599036
-0.0649192
0.451969
0.995262
1.61158
2.35691
3.30367
4.54279
6.16637
8.24591
10.7848
13.164
-21.2938
-13.7977
-8.77447
-5.85279
-3.92829
-2.61373
-1.69857
-1.02478
-0.488409
-0.02135
0.42743
0.904022
1.4595
2.16206
3.11587
4.48019
6.46814
9.46664
14.5791
22.1773
-36.1737
-17.3692
-8.39951
-4.79896
-2.93111
-1.81879
-1.11846
-0.635051
-0.262062
0.0595238
0.369174
0.70118
1.09496
1.60934
2.35053
3.51505
5.45394
9.15161
18.2353
37.1547
)
;

boundaryField
{
    movingWall
    {
        type            zeroGradient;
    }
    fixedWalls
    {
        type            zeroGradient;
    }
    frontAndBack
    {
        type            empty;
    }
}


// ************************************************************************* //
