/*--------------------------------*- C++ -*----------------------------------*\
  =========                 |
  \\      /  F ield         | OpenFOAM: The Open Source CFD Toolbox
   \\    /   O peration     | Website:  https://openfoam.org
    \\  /    A nd           | Version:  6
     \\/     M anipulation  |
\*---------------------------------------------------------------------------*/
FoamFile
{
    version     2.0;
    format      ascii;
    class       volVectorField;
    location    "0.04";
    object      U;
}
// * * * * * * * * * * * * * * * * * * * * * * * * * * * * * * * * * * * * * //

dimensions      [0 1 -1 0 0 0 0];

internalField   nonuniform List<vector> 
400
(
(0.000258028 -0.000254359 0)
(0.00016206 0.00010471 0)
(-0.00114129 0.00056467 0)
(-0.00345148 0.00089465 0)
(-0.00637449 0.00106183 0)
(-0.00950125 0.00107789 0)
(-0.0124622 0.000967584 0)
(-0.0149525 0.000759926 0)
(-0.0167421 0.000483911 0)
(-0.0176777 0.00016726 0)
(-0.0176821 -0.000163304 0)
(-0.0167537 -0.00048126 0)
(-0.0149671 -0.000759407 0)
(-0.0124745 -0.000969217 0)
(-0.00950702 -0.00108084 0)
(-0.0063723 -0.00106467 0)
(-0.00344345 -0.000895985 0)
(-0.00113219 -0.000563881 0)
(0.000167731 -0.000102651 0)
(0.00025959 0.000255463 0)
(-6.53034e-05 -0.000192016 0)
(-0.00156544 0.00161231 0)
(-0.00562104 0.00361175 0)
(-0.011662 0.00506724 0)
(-0.0188874 0.00580106 0)
(-0.0264616 0.00581812 0)
(-0.0335808 0.00520448 0)
(-0.0395529 0.00408552 0)
(-0.0438412 0.00260173 0)
(-0.0460818 0.00089753 0)
(-0.0460901 -0.000882089 0)
(-0.0438631 -0.00259161 0)
(-0.0395805 -0.0040841 0)
(-0.0336043 -0.00521181 0)
(-0.026473 -0.00583077 0)
(-0.0188838 -0.00581327 0)
(-0.0116468 -0.00507331 0)
(-0.00560308 -0.00360907 0)
(-0.00155349 -0.00160387 0)
(-6.17426e-05 0.000197665 0)
(-0.000510302 0.00103301 0)
(-0.00364749 0.00566176 0)
(-0.0104977 0.0102119 0)
(-0.0199302 0.0134778 0)
(-0.0307792 0.0150698 0)
(-0.0419248 0.0149605 0)
(-0.052286 0.0133218 0)
(-0.0609226 0.0104363 0)
(-0.0671015 0.00663919 0)
(-0.0703238 0.00228746 0)
(-0.0703357 -0.00225409 0)
(-0.0671332 -0.00661742 0)
(-0.0609636 -0.0104335 0)
(-0.0523231 -0.0133384 0)
(-0.0419465 -0.014989 0)
(-0.0307803 -0.0150978 0)
(-0.0199141 -0.0134927 0)
(-0.0104752 -0.0102075 0)
(-0.00363119 -0.0056434 0)
(-0.000505104 -0.00101885 0)
(-0.000904319 0.00337421 0)
(-0.0056176 0.0121019 0)
(-0.015216 0.0199182 0)
(-0.0278959 0.0253347 0)
(-0.0420807 0.0278174 0)
(-0.056393 0.0273453 0)
(-0.0695395 0.0242143 0)
(-0.0804103 0.0189083 0)
(-0.0881484 0.012007 0)
(-0.0921739 0.0041333 0)
(-0.0921924 -0.00407336 0)
(-0.0881987 -0.0119669 0)
(-0.0804784 -0.018901 0)
(-0.0696068 -0.024241 0)
(-0.0564423 -0.0273943 0)
(-0.0421018 -0.027868 0)
(-0.02789 -0.0253649 0)
(-0.0151953 -0.0199154 0)
(-0.00559899 -0.0120728 0)
(-0.000897659 -0.00334881 0)
(-0.00125225 0.00671942 0)
(-0.00747111 0.020806 0)
(-0.0197753 0.0325559 0)
(-0.0356416 0.0403583 0)
(-0.0530361 0.0436523 0)
(-0.0703152 0.0425094 0)
(-0.0859998 0.0374147 0)
(-0.0988572 0.0291034 0)
(-0.107957 0.0184399 0)
(-0.112678 0.00634465 0)
(-0.112709 -0.00624098 0)
(-0.108042 -0.0183674 0)
(-0.0989776 -0.0290831 0)
(-0.0861277 -0.0374501 0)
(-0.0704232 -0.0425846 0)
(-0.053105 -0.0437363 0)
(-0.0356668 -0.0404161 0)
(-0.0197685 -0.0325644 0)
(-0.00745465 -0.02077 0)
(-0.00124475 -0.00668157 0)
(-0.00158445 0.0110111 0)
(-0.00929709 0.0317461 0)
(-0.0243215 0.0481288 0)
(-0.0433749 0.0585362 0)
(-0.0639241 0.0625113 0)
(-0.084046 0.060335 0)
(-0.102095 0.0527732 0)
(-0.116753 0.0408772 0)
(-0.127061 0.025836 0)
(-0.132396 0.00888906 0)
(-0.132447 -0.00871093 0)
(-0.127205 -0.0257051 0)
(-0.116961 -0.0408269 0)
(-0.102326 -0.0528122 0)
(-0.084258 -0.0604436 0)
(-0.0640822 -0.0626458 0)
(-0.0434635 -0.0586435 0)
(-0.0243485 -0.0481685 0)
(-0.00929086 -0.0317147 0)
(-0.00157753 -0.0109626 0)
(-0.00193142 0.0162557 0)
(-0.0111984 0.0449646 0)
(-0.0290285 0.0666853 0)
(-0.0513092 0.0798761 0)
(-0.074963 0.0843341 0)
(-0.0977844 0.0806969 0)
(-0.11799 0.0701284 0)
(-0.13423 0.0540737 0)
(-0.145566 0.0340859 0)
(-0.151418 0.0117325 0)
(-0.151499 -0.011432 0)
(-0.145795 -0.0338554 0)
(-0.134567 -0.0539649 0)
(-0.118378 -0.0701595 0)
(-0.0981579 -0.0808461 0)
(-0.0752652 -0.084543 0)
(-0.0515057 -0.0800669 0)
(-0.0291183 -0.0667902 0)
(-0.0112149 -0.0449616 0)
(-0.00192753 -0.0162034 0)
(-0.00232202 0.0225198 0)
(-0.0132754 0.0605811 0)
(-0.0340582 0.0883121 0)
(-0.059607 0.10437 0)
(-0.0862485 0.108998 0)
(-0.111512 0.10338 0)
(-0.133537 0.0892235 0)
(-0.151013 0.0684551 0)
(-0.163104 0.0430256 0)
(-0.169324 0.0148224 0)
(-0.169444 -0.0143327 0)
(-0.163445 -0.0426369 0)
(-0.151523 -0.068245 0)
(-0.134138 -0.0892263 0)
(-0.112112 -0.103575 0)
(-0.0867593 -0.109311 0)
(-0.0599666 -0.104692 0)
(-0.0342484 -0.0885343 0)
(-0.0133318 -0.0606466 0)
(-0.00232482 -0.0224784 0)
(-0.00278645 0.0299272 0)
(-0.0156274 0.0787867 0)
(-0.0395478 0.113112 0)
(-0.0683463 0.131944 0)
(-0.0976995 0.136246 0)
(-0.124925 0.127998 0)
(-0.148191 0.109628 0)
(-0.166346 0.0836375 0)
(-0.178758 0.0523947 0)
(-0.185113 0.0180718 0)
(-0.185278 -0.017309 0)
(-0.179232 -0.0517723 0)
(-0.167066 -0.083268 0)
(-0.149056 -0.10957 0)
(-0.125814 -0.12824 0)
(-0.0984867 -0.136698 0)
(-0.0689314 -0.132458 0)
(-0.0398837 -0.113524 0)
(-0.0157459 -0.0789814 0)
(-0.00280102 -0.029922 0)
(-0.00336408 0.0386621 0)
(-0.0183689 0.0998315 0)
(-0.0456138 0.141153 0)
(-0.0774945 0.162371 0)
(-0.108997 0.165576 0)
(-0.137347 0.153876 0)
(-0.160912 0.130632 0)
(-0.178876 0.0990098 0)
(-0.190949 0.0617847 0)
(-0.197086 0.0213405 0)
(-0.197299 -0.0202102 0)
(-0.191563 -0.0608414 0)
(-0.179819 -0.0984088 0)
(-0.162069 -0.130467 0)
(-0.138568 -0.154152 0)
(-0.110117 -0.166197 0)
(-0.078365 -0.163148 0)
(-0.0461442 -0.141847 0)
(-0.0185759 -0.10024 0)
(-0.00339706 -0.0387317 0)
(-0.00411752 0.0489888 0)
(-0.0216568 0.124014 0)
(-0.0523586 0.172391 0)
(-0.0868653 0.195138 0)
(-0.119489 0.196081 0)
(-0.147592 0.179903 0)
(-0.170014 0.15113 0)
(-0.186508 0.11365 0)
(-0.197298 0.0705893 0)
(-0.202715 0.0244159 0)
(-0.202966 -0.0228282 0)
(-0.198027 -0.0692375 0)
(-0.187646 -0.112738 0)
(-0.171443 -0.150796 0)
(-0.149144 -0.180185 0)
(-0.120965 -0.196888 0)
(-0.0880637 -0.196246 0)
(-0.0531287 -0.173475 0)
(-0.0219812 -0.124743 0)
(-0.0041772 -0.0491876 0)
(-0.00515778 0.0612987 0)
(-0.0257328 0.151665 0)
(-0.0598631 0.206549 0)
(-0.096024 0.229253 0)
(-0.128019 0.226254 0)
(-0.153761 0.204367 0)
(-0.172958 0.169499 0)
(-0.186219 0.126252 0)
(-0.194463 0.0779657 0)
(-0.198495 0.0269983 0)
(-0.19876 -0.0248914 0)
(-0.195242 -0.0761378 0)
(-0.187459 -0.124955 0)
(-0.174559 -0.168922 0)
(-0.155565 -0.204598 0)
(-0.12981 -0.227235 0)
(-0.0975501 -0.23074 0)
(-0.0609004 -0.208129 0)
(-0.0262024 -0.152843 0)
(-0.00525409 -0.0616985 0)
(-0.00668849 0.0762059 0)
(-0.0309763 0.183114 0)
(-0.0681199 0.242892 0)
(-0.10407 0.262943 0)
(-0.132618 0.253716 0)
(-0.152919 0.224767 0)
(-0.166071 0.183504 0)
(-0.173843 0.135091 0)
(-0.17799 0.0828276 0)
(-0.179835 0.0286988 0)
(-0.180073 -0.0260719 0)
(-0.1787 -0.0805052 0)
(-0.175008 -0.133361 0)
(-0.167639 -0.18261 0)
(-0.154778 -0.224863 0)
(-0.134573 -0.254806 0)
(-0.105844 -0.264807 0)
(-0.0694115 -0.245047 0)
(-0.0316109 -0.184871 0)
(-0.00683265 -0.0768956 0)
(-0.00907516 0.0947098 0)
(-0.0379365 0.218556 0)
(-0.0767975 0.279818 0)
(-0.109152 0.293215 0)
(-0.129932 0.274901 0)
(-0.140585 0.237678 0)
(-0.144181 0.190293 0)
(-0.143862 0.138081 0)
(-0.142221 0.0839067 0)
(-0.141032 0.0290631 0)
(-0.141184 -0.0260135 0)
(-0.142692 -0.0811564 0)
(-0.144687 -0.135929 0)
(-0.145389 -0.189026 0)
(-0.142155 -0.237527 0)
(-0.131749 -0.275971 0)
(-0.110967 -0.295366 0)
(-0.0782545 -0.282553 0)
(-0.0387339 -0.220997 0)
(-0.00927811 -0.0957915 0)
(-0.0129067 0.118412 0)
(-0.0471894 0.257639 0)
(-0.0845433 0.314102 0)
(-0.107438 0.315242 0)
(-0.114226 0.284803 0)
(-0.109989 0.238793 0)
(-0.100192 0.186607 0)
(-0.0892604 0.133021 0)
(-0.0803511 0.0799391 0)
(-0.0754273 0.0276425 0)
(-0.0754285 -0.0243943 0)
(-0.0803892 -0.0769452 0)
(-0.0894299 -0.130555 0)
(-0.100621 -0.184968 0)
(-0.110791 -0.238282 0)
(-0.11543 -0.285651 0)
(-0.10891 -0.317464 0)
(-0.0859459 -0.31729 0)
(-0.0480965 -0.260791 0)
(-0.0131731 -0.119986 0)
(-0.018831 0.149825 0)
(-0.0584599 0.298446 0)
(-0.0871144 0.339575 0)
(-0.0910276 0.321665 0)
(-0.0757483 0.276979 0)
(-0.0511181 0.223381 0)
(-0.0247343 0.169386 0)
(-0.00160796 0.118143 0)
(0.0152255 0.0700317 0)
(0.0241085 0.0241315 0)
(0.0243064 -0.0210346 0)
(0.0157715 -0.0671055 0)
(-0.000852175 -0.115593 0)
(-0.0239834 -0.167479 0)
(-0.0506268 -0.222449 0)
(-0.0757397 -0.277374 0)
(-0.0915807 -0.323609 0)
(-0.0880477 -0.342887 0)
(-0.0593123 -0.302173 0)
(-0.0191388 -0.151959 0)
(-0.0263683 0.193092 0)
(-0.0675835 0.335104 0)
(-0.0729635 0.344702 0)
(-0.0441044 0.301764 0)
(0.00160372 0.244049 0)
(0.0502294 0.187349 0)
(0.0938276 0.136859 0)
(0.128376 0.092955 0)
(0.152075 0.0541877 0)
(0.164233 0.0185611 0)
(0.164625 -0.0160344 0)
(0.153206 -0.0517295 0)
(0.130108 -0.0906718 0)
(0.0959196 -0.134934 0)
(0.0523449 -0.186075 0)
(0.00334851 -0.243829 0)
(-0.0430787 -0.303022 0)
(-0.0728002 -0.347599 0)
(-0.0680097 -0.339004 0)
(-0.0266122 -0.195759 0)
(-0.0286568 0.251052 0)
(-0.0577852 0.35095 0)
(-0.0140065 0.309648 0)
(0.0632614 0.24242 0)
(0.142964 0.18031 0)
(0.212741 0.129916 0)
(0.268487 0.0905886 0)
(0.309462 0.0595741 0)
(0.336257 0.0340325 0)
(0.349665 0.0115481 0)
(0.350158 -0.00995081 0)
(0.337712 -0.0324215 0)
(0.311795 -0.0579608 0)
(0.271533 -0.0890423 0)
(0.216216 -0.12861 0)
(0.146442 -0.179576 0)
(0.0662089 -0.242756 0)
(-0.0121263 -0.311528 0)
(-0.0571584 -0.354251 0)
(-0.0285305 -0.253893 0)
(0.0139495 0.28904 0)
(0.0303832 0.302875 0)
(0.154091 0.214125 0)
(0.282773 0.142373 0)
(0.382979 0.0939714 0)
(0.457148 0.0619835 0)
(0.510517 0.0405676 0)
(0.547104 0.025559 0)
(0.569972 0.014213 0)
(0.581128 0.0047406 0)
(0.581535 -0.00414473 0)
(0.571197 -0.0135785 0)
(0.54915 -0.0248521 0)
(0.513364 -0.0397699 0)
(0.460704 -0.0611212 0)
(0.387015 -0.0931823 0)
(0.286864 -0.141998 0)
(0.157535 -0.214673 0)
(0.0325366 -0.30455 0)
(0.0149974 -0.290853 0)
(0.304909 0.147201 0)
(0.40625 0.127709 0)
(0.569525 0.0747679 0)
(0.686099 0.0418524 0)
(0.753534 0.0238645 0)
(0.794606 0.0139518 0)
(0.82089 0.00831567 0)
(0.837588 0.00490143 0)
(0.847524 0.00260794 0)
(0.852224 0.000837924 0)
(0.852352 -0.000774215 0)
(0.847919 -0.00252739 0)
(0.838287 -0.00478379 0)
(0.821952 -0.00813459 0)
(0.796099 -0.0136767 0)
(0.755514 -0.0234796 0)
(0.688573 -0.0414048 0)
(0.572185 -0.0744246 0)
(0.40821 -0.127747 0)
(0.305837 -0.147542 0)
)
;

boundaryField
{
    movingWall
    {
        type            fixedValue;
        value           uniform (1 0 0);
    }
    fixedWalls
    {
        type            noSlip;
    }
    frontAndBack
    {
        type            empty;
    }
}


// ************************************************************************* //
