/*--------------------------------*- C++ -*----------------------------------*\
  =========                 |
  \\      /  F ield         | OpenFOAM: The Open Source CFD Toolbox
   \\    /   O peration     | Website:  https://openfoam.org
    \\  /    A nd           | Version:  6
     \\/     M anipulation  |
\*---------------------------------------------------------------------------*/
FoamFile
{
    version     2.0;
    format      ascii;
    class       volScalarField;
    location    "0.005";
    object      p;
}
// * * * * * * * * * * * * * * * * * * * * * * * * * * * * * * * * * * * * * //

dimensions      [0 2 -2 0 0 0 0];

internalField   nonuniform List<scalar> 
400
(
1.63411e-08
-0.000502929
0.00101271
0.0047525
0.010493
0.0180064
0.0270395
0.037301
0.0484695
0.0602015
0.0721392
0.0839187
0.0951782
0.105567
0.114754
0.122436
0.128354
0.132277
0.133959
0.133556
0.000330076
-0.000209302
0.00139836
0.00517486
0.0108875
0.0183446
0.0273084
0.037493
0.0485801
0.0602285
0.0720823
0.0837795
0.0949598
0.105274
0.114394
0.122021
0.127905
0.131845
0.133595
0.13315
-0.00138613
-0.00205675
-0.000391705
0.00351802
0.00939895
0.0170611
0.0262638
0.036715
0.0480891
0.0600378
0.072198
0.0841999
0.0956753
0.106267
0.115637
0.123478
0.129533
0.133596
0.135377
0.134773
-0.00536871
-0.00614232
-0.00438074
-0.000218147
0.00603093
0.014159
0.0239084
0.0349688
0.0469973
0.0596287
0.0724838
0.0851762
0.0973203
0.10854
0.118478
0.126805
0.133242
0.137561
0.139426
0.138698
-0.0116363
-0.0124999
-0.0105752
-0.00602119
0.000802023
0.00965789
0.0202597
0.0322678
0.0453118
0.0590011
0.0729321
0.0866941
0.0998758
0.112073
0.122898
0.131986
0.139026
0.143753
0.145786
0.144959
-0.020386
-0.0213507
-0.0191851
-0.0140769
-0.00644609
0.00342834
0.0152171
0.028539
0.0429857
0.0581329
0.073546
0.0887834
0.103401
0.116956
0.12902
0.13918
0.147075
0.152391
0.154681
0.153752
-0.0319182
-0.0330065
-0.0305068
-0.0246488
-0.0159366
-0.00471023
0.00864139
0.0236816
0.0399537
0.0569925
0.0743272
0.0914808
0.10797
0.123309
0.137012
0.148605
0.157655
0.163779
0.166433
0.165382
-0.0466367
-0.0478781
-0.0449259
-0.038075
-0.0279502
-0.0149802
0.000364812
0.0175761
0.0361386
0.0555408
0.0752737
0.0948244
0.113669
0.13127
0.147077
0.160531
0.171106
0.178311
0.181468
0.18027
-0.0650774
-0.0665076
-0.0629435
-0.0547843
-0.042833
-0.0276467
-0.00980673
0.0100877
0.031454
0.0537327
0.0763797
0.098851
0.120586
0.140995
0.15945
0.17529
0.187856
0.196503
0.200348
0.198973
-0.0879482
-0.0896085
-0.0852042
-0.0753093
-0.0609967
-0.043011
-0.0220833
0.00107602
0.0258113
0.0515196
0.0776328
0.103589
0.128804
0.152641
0.174393
0.193269
0.208434
0.219016
0.223822
0.222235
-0.116197
-0.118129
-0.112536
-0.100301
-0.0829152
-0.0613965
-0.0366742
-0.00959006
0.0191287
0.0488511
0.0790074
0.109045
0.138379
0.166348
0.192168
0.214903
0.233482
0.246707
0.25289
0.251063
-0.151129
-0.153356
-0.14601
-0.130544
-0.109111
-0.0831218
-0.0537591
-0.0220087
0.0113459
0.0456773
0.0804541
0.115176
0.149305
0.182191
0.213
0.240643
0.263759
0.280675
0.288919
0.286858
-0.194626
-0.197085
-0.187014
-0.166957
-0.140116
-0.108448
-0.0734367
-0.0362038
0.0024509
0.0419598
0.0818932
0.12187
0.161467
0.200118
0.236998
0.270893
0.300114
0.322335
0.333829
0.331667
-0.249601
-0.251918
-0.237345
-0.210558
-0.176384
-0.137479
-0.0956369
-0.0520585
-0.00747583
0.0376934
0.0832119
0.128911
0.174583
0.219856
0.264032
0.305878
0.343406
0.373473
0.390401
0.388708
-0.320993
-0.321768
-0.29927
-0.262325
-0.2181
-0.16999
-0.119989
-0.0692226
-0.0182043
0.0329329
0.0842635
0.135948
0.188123
0.240773
0.293534
0.345389
0.394272
0.436242
0.462824
0.463565
-0.417718
-0.412511
-0.375409
-0.322873
-0.264863
-0.205175
-0.145644
-0.0870026
-0.0292912
0.0278251
0.0848717
0.142463
0.201227
0.261708
0.324186
0.38832
0.452577
0.512794
0.557158
0.566296
-0.556896
-0.532527
-0.468266
-0.391932
-0.315218
-0.241301
-0.171059
-0.104231
-0.0399987
0.0226661
0.0848773
0.147807
0.212695
0.280858
0.353617
0.432052
0.516358
0.603808
0.680793
0.715433
-0.782322
-0.694587
-0.577837
-0.466143
-0.365064
-0.274685
-0.193397
-0.118923
-0.049081
0.0180662
0.0842945
0.151355
0.221136
0.295851
0.378263
0.471835
0.580295
0.706222
0.845577
0.960491
-1.22151
-0.913896
-0.68596
-0.527531
-0.401307
-0.296443
-0.20688
-0.127432
-0.0543215
0.0152234
0.0834867
0.152624
0.224994
0.303578
0.392684
0.498945
0.632051
0.80967
1.07952
1.45024
-1.99322
-1.14257
-0.732475
-0.538386
-0.403512
-0.29573
-0.205641
-0.126488
-0.0538574
0.0151782
0.0829165
0.151504
0.22332
0.301519
0.391096
0.501022
0.648387
0.878291
1.35191
2.27928
)
;

boundaryField
{
    movingWall
    {
        type            zeroGradient;
    }
    fixedWalls
    {
        type            zeroGradient;
    }
    frontAndBack
    {
        type            empty;
    }
}


// ************************************************************************* //
