/*--------------------------------*- C++ -*----------------------------------*\
  =========                 |
  \\      /  F ield         | OpenFOAM: The Open Source CFD Toolbox
   \\    /   O peration     | Website:  https://openfoam.org
    \\  /    A nd           | Version:  6
     \\/     M anipulation  |
\*---------------------------------------------------------------------------*/
FoamFile
{
    version     2.0;
    format      ascii;
    class       volScalarField;
    location    "0.1";
    object      p;
}
// * * * * * * * * * * * * * * * * * * * * * * * * * * * * * * * * * * * * * //

dimensions      [0 2 -2 0 0 0 0];

internalField   nonuniform List<scalar> 
400
(
2.17761e-05
-0.0580416
-0.130349
-0.18621
-0.207168
-0.184922
-0.11885
-0.0138618
0.121361
0.275704
0.43667
0.59128
0.726939
0.832369
0.898722
0.920989
0.899808
0.843618
0.771085
0.713019
0.0575751
-0.00207721
-0.0588396
-0.097395
-0.108597
-0.0866095
-0.030686
0.0556232
0.165725
0.290967
0.421475
0.546944
0.657419
0.744109
0.800282
0.8223
0.810917
0.772078
0.71512
0.655506
0.134067
0.0514345
-0.0100098
-0.0456174
-0.0547491
-0.0341843
0.0160161
0.0924003
0.189175
0.298914
0.413183
0.523179
0.620378
0.697206
0.747712
0.76834
0.759024
0.723089
0.661393
0.57879
0.20474
0.0903819
0.0139279
-0.0267059
-0.0378265
-0.0185265
0.0299251
0.103433
0.196145
0.300985
0.410085
0.515272
0.608568
0.682705
0.731629
0.751092
0.739791
0.698743
0.621905
0.507489
0.253409
0.10544
0.010977
-0.0368295
-0.0502296
-0.0303773
0.0201146
0.0961668
0.191436
0.298732
0.410287
0.518081
0.614201
0.69121
0.742482
0.762712
0.7492
0.700892
0.605848
0.457619
0.26851
0.0861345
-0.0271498
-0.0819081
-0.095833
-0.0720561
-0.0146809
0.0699568
0.174698
0.291906
0.413575
0.531507
0.63751
0.723617
0.78228
0.806827
0.79298
0.737672
0.623544
0.440548
0.240021
0.022064
-0.109768
-0.169463
-0.180301
-0.147581
-0.0771605
0.0230811
0.144904
0.27999
0.419891
0.556026
0.679708
0.782185
0.854685
0.888835
0.878468
0.818273
0.685285
0.466139
0.157164
-0.0982203
-0.247323
-0.308006
-0.310039
-0.261452
-0.170293
-0.0463143
0.100958
0.262417
0.429125
0.592088
0.742062
0.86938
0.963803
1.01487
1.01402
0.953082
0.802493
0.545095
0.00655002
-0.288774
-0.452564
-0.507847
-0.492723
-0.418982
-0.297517
-0.140328
0.0416488
0.238574
0.44117
0.640211
0.82604
0.988108
1.11454
1.19236
1.20986
1.1549
0.989343
0.690904
-0.229651
-0.567839
-0.74152
-0.781442
-0.737186
-0.625923
-0.462276
-0.260873
-0.0340343
0.207951
0.455888
0.700783
0.932982
1.14133
1.3123
1.42994
1.47846
1.43995
1.26442
0.921754
-0.576164
-0.959912
-1.1346
-1.14356
-1.05295
-0.887689
-0.667186
-0.408954
-0.126393
0.170394
0.473084
0.773755
1.06356
1.33136
1.56229
1.73712
1.83478
1.82909
1.65286
1.26312
-1.06874
-1.49885
-1.65794
-1.61118
-1.4493
-1.2081
-0.912801
-0.583654
-0.234318
0.126446
0.492475
0.858243
1.21701
1.55888
1.86848
2.12341
2.29624
2.34921
2.18961
1.75206
-1.76202
-2.23278
-2.34489
-2.2027
-1.93341
-1.58732
-1.19577
-0.780725
-0.354369
0.0777864
0.513643
0.95198
1.39013
1.82139
2.23172
2.59667
2.88206
3.0348
2.9244
2.44531
-2.74583
-3.23205
-3.23678
-2.93521
-2.50664
-2.01829
-1.50606
-0.990658
-0.479612
0.0277133
0.535889
1.0505
1.5756
2.11073
2.64651
3.15958
3.61068
3.92881
3.92987
3.43591
-4.17855
-4.60076
-4.38019
-3.81698
-3.15678
-2.48067
-1.82278
-1.19614
-0.598304
-0.0184386
0.557864
1.14589
1.75965
2.4091
3.09509
3.80206
4.49227
5.07995
5.31308
4.88692
-6.34414
-6.48668
-5.81682
-4.83463
-3.84756
-2.93378
-2.11026
-1.37026
-0.693306
-0.0533759
0.577053
1.22569
1.91984
2.68494
3.54033
4.49079
5.51601
6.53241
7.22513
7.08837
-9.7517
-9.08102
-7.56418
-5.94215
-4.5139
-3.31577
-2.31964
-1.47902
-0.744372
-0.0692403
0.589484
1.27361
2.02617
2.89335
3.92415
5.16403
6.63871
8.30626
9.86024
10.5557
-15.5364
-12.6255
-9.51764
-6.98471
-5.01685
-3.51979
-2.3777
-1.477
-0.727177
-0.0582766
0.587947
1.26602
2.03422
2.96249
4.14136
5.68448
7.70706
10.2989
13.4647
16.4325
-26.6562
-17.272
-10.9829
-7.32162
-4.90823
-3.25889
-2.11012
-1.26424
-0.591313
-0.00619431
0.554892
1.14954
1.84158
2.71623
3.90365
5.60275
8.0796
11.8177
18.1961
27.6823
-45.2701
-21.7485
-10.5222
-6.00945
-3.66575
-2.26886
-1.38834
-0.780182
-0.311286
0.0920828
0.479238
0.893027
1.38272
2.02186
2.94322
4.39233
6.80706
11.417
22.7573
46.3937
)
;

boundaryField
{
    movingWall
    {
        type            zeroGradient;
    }
    fixedWalls
    {
        type            zeroGradient;
    }
    frontAndBack
    {
        type            empty;
    }
}


// ************************************************************************* //
