/*--------------------------------*- C++ -*----------------------------------*\
  =========                 |
  \\      /  F ield         | OpenFOAM: The Open Source CFD Toolbox
   \\    /   O peration     | Website:  https://openfoam.org
    \\  /    A nd           | Version:  6
     \\/     M anipulation  |
\*---------------------------------------------------------------------------*/
FoamFile
{
    version     2.0;
    format      ascii;
    class       volScalarField;
    location    "0.045";
    object      p;
}
// * * * * * * * * * * * * * * * * * * * * * * * * * * * * * * * * * * * * * //

dimensions      [0 2 -2 0 0 0 0];

internalField   nonuniform List<scalar> 
400
(
5.18048e-08
-0.00378027
-0.0081567
-0.0111131
-0.0115888
-0.00915907
-0.00384909
0.00400517
0.0138598
0.0250284
0.0367271
0.0481131
0.0583304
0.0665728
0.0721685
0.0746942
0.0741155
0.0709398
0.0663766
0.0625576
0.00373407
-0.000160816
-0.003562
-0.00547341
-0.00540411
-0.00304857
0.00159952
0.008296
0.0166198
0.026021
0.035859
0.0454406
0.0540655
0.061084
0.0659686
0.0684015
0.0683796
0.0662747
0.0627064
0.0587862
0.00838583
0.00299617
-0.000716967
-0.00245866
-0.00228152
-3.27496e-05
0.00425595
0.0103545
0.0178939
0.0263966
0.0353028
0.0440009
0.051868
0.0583196
0.0628702
0.0652056
0.0652766
0.0633003
0.0593662
0.0539192
0.0122815
0.00485059
0.000173282
-0.00188832
-0.00183731
0.000336275
0.00453401
0.010496
0.0178574
0.0261661
0.0348939
0.0434581
0.0512527
0.0576913
0.0622591
0.0645795
0.064516
0.0621437
0.0571304
0.0495483
0.0144203
0.00480151
-0.00104802
-0.00357374
-0.0036713
-0.00145908
0.00289109
0.00907174
0.0167001
0.0253239
0.03442
0.0434036
0.0516511
0.058534
0.0634649
0.0659652
0.0657862
0.0628664
0.0565102
0.0465604
0.0140649
0.00213113
-0.00498794
-0.00799137
-0.00814882
-0.00570224
-0.000902603
0.00588302
0.0142389
0.0236962
0.0337182
0.0436972
0.052965
0.0608186
0.0665593
0.0695654
0.0694434
0.0659815
0.0581261
0.0455562
0.0105315
-0.00391135
-0.0123552
-0.0157571
-0.0157892
-0.012829
-0.00721776
0.000606932
0.0101868
0.0210283
0.0325723
0.0441763
0.0551102
0.0645695
0.0717055
0.0757046
0.0759776
0.0721175
0.0626522
0.0470956
0.00303462
-0.0141861
-0.0239691
-0.0275896
-0.0272031
-0.0233561
-0.016499
-0.0071509
0.00418415
0.0169897
0.030688
0.0446038
0.0579405
0.0697738
0.0790678
0.0847562
0.0859789
0.0820455
0.0709245
0.0518927
-0.00944351
-0.0297719
-0.0408421
-0.0443677
-0.0431295
-0.0379025
-0.0292749
-0.0178583
-0.00419807
0.0111803
0.0277005
0.0446743
0.0612524
0.0763878
0.0888256
0.0971768
0.100204
0.0967869
0.084092
0.061
-0.028275
-0.0520729
-0.0642445
-0.0671504
-0.0644201
-0.0571496
-0.0461043
-0.031997
-0.0154009
0.00317985
0.0232095
0.0440317
0.0647845
0.0843223
0.101157
0.113504
0.119612
0.117713
0.103782
0.0760105
-0.0553431
-0.0829514
-0.0957697
-0.0971709
-0.0919789
-0.0817455
-0.0674608
-0.0499411
-0.0297579
-0.00734481
0.0168681
0.0423318
0.0682507
0.0934462
0.116223
0.13435
0.145402
0.14666
0.132315
0.0993325
-0.0933026
-0.124928
-0.137407
-0.135792
-0.12664
-0.112136
-0.0935412
-0.071758
-0.0473022
-0.0204593
0.00854116
0.0393703
0.0714271
0.10363
0.134174
0.160394
0.179048
0.186078
0.173016
0.134625
-0.146092
-0.181505
-0.191606
-0.184386
-0.168937
-0.148288
-0.123977
-0.0969281
-0.0675016
-0.0357189
-0.00147786
0.0352663
0.0742918
0.114828
0.155174
0.19237
0.222316
0.239198
0.23068
0.18757
-0.220043
-0.25771
-0.261283
-0.24404
-0.218702
-0.189269
-0.157445
-0.124005
-0.088969
-0.0519194
-0.0122516
0.0306433
0.0771591
0.127143
0.179375
0.230972
0.277185
0.310181
0.312295
0.267377
-0.326284
-0.360938
-0.349542
-0.314879
-0.27434
-0.23263
-0.191205
-0.150295
-0.109254
-0.0669697
-0.0221243
0.0266647
0.0806704
0.140741
0.206701
0.276483
0.345417
0.403977
0.428015
0.389679
-0.485166
-0.501793
-0.458831
-0.394948
-0.331893
-0.273778
-0.220781
-0.171794
-0.124953
-0.0781033
-0.0289839
0.0247522
0.0854987
0.155512
0.236397
0.32812
0.4277
0.52554
0.59175
0.580958
-0.734518
-0.694286
-0.589474
-0.479364
-0.38473
-0.306116
-0.240463
-0.183902
-0.132521
-0.0827091
-0.031063
0.0258408
0.0916709
0.170458
0.266457
0.383424
0.522707
0.678247
0.82093
0.885867
-1.16118
-0.955853
-0.732243
-0.554954
-0.420749
-0.320018
-0.243387
-0.182124
-0.129286
-0.079513
-0.0282735
0.0288216
0.0966406
0.181161
0.290147
0.433336
0.620211
0.856255
1.13876
1.40065
-1.99863
-1.29588
-0.830887
-0.57071
-0.404421
-0.292839
-0.216099
-0.159209
-0.112166
-0.0684425
-0.0231097
0.0284194
0.0914105
0.173031
0.284265
0.442139
0.669812
1.00654
1.56177
2.36618
-3.44632
-1.61738
-0.770558
-0.452397
-0.295458
-0.205043
-0.150232
-0.112562
-0.0816164
-0.0517225
-0.0191314
0.0195078
0.0682092
0.133045
0.2249
0.364497
0.590777
1.00592
1.96749
3.91082
)
;

boundaryField
{
    movingWall
    {
        type            zeroGradient;
    }
    fixedWalls
    {
        type            zeroGradient;
    }
    frontAndBack
    {
        type            empty;
    }
}


// ************************************************************************* //
