/*--------------------------------*- C++ -*----------------------------------*\
  =========                 |
  \\      /  F ield         | OpenFOAM: The Open Source CFD Toolbox
   \\    /   O peration     | Website:  https://openfoam.org
    \\  /    A nd           | Version:  6
     \\/     M anipulation  |
\*---------------------------------------------------------------------------*/
FoamFile
{
    version     2.0;
    format      ascii;
    class       volVectorField;
    location    "0.035";
    object      U;
}
// * * * * * * * * * * * * * * * * * * * * * * * * * * * * * * * * * * * * * //

dimensions      [0 1 -1 0 0 0 0];

internalField   nonuniform List<vector> 
400
(
(0.000154177 -0.000152152 0)
(-4.22884e-05 0.000160398 0)
(-0.00118755 0.000502709 0)
(-0.00304538 0.000722863 0)
(-0.00528111 0.000816176 0)
(-0.00759559 0.000803532 0)
(-0.00974182 0.000709003 0)
(-0.0115283 0.000554665 0)
(-0.0128155 0.000358824 0)
(-0.0135093 0.000136684 0)
(-0.0135564 -9.7874e-05 0)
(-0.0129438 -0.00033029 0)
(-0.0117029 -0.000543522 0)
(-0.00991679 -0.000716835 0)
(-0.00772877 -0.00082557 0)
(-0.00534858 -0.000842603 0)
(-0.00305005 -0.000742358 0)
(-0.00115692 -0.000507622 0)
(-1.24312e-05 -0.000152266 0)
(0.000164901 0.000160743 0)
(-0.000134455 2.02748e-05 0)
(-0.00148615 0.00151194 0)
(-0.00478454 0.00297808 0)
(-0.00946533 0.00394374 0)
(-0.0148692 0.00435125 0)
(-0.0203898 0.00425655 0)
(-0.0254887 0.00375091 0)
(-0.0297272 0.0029318 0)
(-0.0327762 0.00188968 0)
(-0.0344114 0.000706506 0)
(-0.0345076 -0.000539461 0)
(-0.0330396 -0.00176652 0)
(-0.0300896 -0.00288295 0)
(-0.0258597 -0.00378342 0)
(-0.0206852 -0.00435077 0)
(-0.0150381 -0.00446648 0)
(-0.0095073 -0.00403291 0)
(-0.00474689 -0.00300863 0)
(-0.00143639 -0.00148684 0)
(-0.000114857 1.3285e-05 0)
(-0.000474256 0.0011189 0)
(-0.00305134 0.00481867 0)
(-0.00840363 0.00811614 0)
(-0.0155354 0.0102703 0)
(-0.0235181 0.0111428 0)
(-0.0315498 0.0108271 0)
(-0.0389087 0.00951362 0)
(-0.0449987 0.00742342 0)
(-0.0493689 0.00477405 0)
(-0.0517101 0.00177084 0)
(-0.0518501 -0.00138616 0)
(-0.0497542 -0.00448852 0)
(-0.0455355 -0.00730639 0)
(-0.0394706 -0.00958252 0)
(-0.0320152 -0.01104 0)
(-0.023808 -0.01141 0)
(-0.0156381 -0.0104864 0)
(-0.00837694 -0.00820499 0)
(-0.00298981 -0.0047788 0)
(-0.000447278 -0.0010476 0)
(-0.000757192 0.00304027 0)
(-0.00446652 0.00986399 0)
(-0.0117852 0.0154838 0)
(-0.0212231 0.0190414 0)
(-0.0315572 0.0203775 0)
(-0.04181 0.0196586 0)
(-0.0511207 0.017206 0)
(-0.0587851 0.0133962 0)
(-0.0642741 0.00860505 0)
(-0.0672247 0.00319176 0)
(-0.0674322 -0.00249168 0)
(-0.0648494 -0.00807885 0)
(-0.0595997 -0.0131675 0)
(-0.0519972 -0.0173101 0)
(-0.042571 -0.0200281 0)
(-0.0320761 -0.0208603 0)
(-0.0214624 -0.0194517 0)
(-0.0118082 -0.0156787 0)
(-0.00440275 -0.00982331 0)
(-0.000722169 -0.00292056 0)
(-0.00100419 0.00567206 0)
(-0.00579713 0.0165209 0)
(-0.0150726 0.0249338 0)
(-0.0268149 0.030054 0)
(-0.0394704 0.0317935 0)
(-0.051876 0.0304575 0)
(-0.0630461 0.0265451 0)
(-0.0721946 0.0206215 0)
(-0.0787414 0.0132447 0)
(-0.082291 0.00494403 0)
(-0.082614 -0.00376381 0)
(-0.0796445 -0.0123415 0)
(-0.073495 -0.0201969 0)
(-0.0644864 -0.0266662 0)
(-0.0531865 -0.0310316 0)
(-0.0404402 -0.0325893 0)
(-0.027353 -0.0307738 0)
(-0.0152361 -0.0253294 0)
(-0.00576184 -0.0165245 0)
(-0.000964384 -0.0055012 0)
(-0.00125056 0.00898835 0)
(-0.00716909 0.024816 0)
(-0.0185105 0.0365434 0)
(-0.0326864 0.0433947 0)
(-0.0477698 0.0454549 0)
(-0.0623938 0.043256 0)
(-0.0754525 0.0375406 0)
(-0.0860971 0.0291055 0)
(-0.0937197 0.0187138 0)
(-0.0979093 0.00707398 0)
(-0.0984182 -0.00513209 0)
(-0.0951533 -0.0171964 0)
(-0.0881938 -0.0283298 0)
(-0.0778343 -0.0376304 0)
(-0.0646477 -0.0440978 0)
(-0.0495466 -0.0467168 0)
(-0.0337951 -0.0446208 0)
(-0.0189768 -0.0373191 0)
(-0.00722428 -0.0249708 0)
(-0.00121558 -0.0087844 0)
(-0.0015298 0.0130415 0)
(-0.00871329 0.0348936 0)
(-0.0223569 0.0505037 0)
(-0.0392097 0.05925 0)
(-0.0569144 0.0615104 0)
(-0.0738842 0.0581561 0)
(-0.0889031 0.0502584 0)
(-0.101085 0.0388984 0)
(-0.109822 0.0250673 0)
(-0.114711 0.00965306 0)
(-0.115495 -0.00650996 0)
(-0.112045 -0.0225583 0)
(-0.104379 -0.0375121 0)
(-0.0927263 -0.0502154 0)
(-0.0776185 -0.0593362 0)
(-0.0600005 -0.0634594 0)
(-0.041288 -0.0612925 0)
(-0.0233762 -0.0519662 0)
(-0.00896129 -0.0354079 0)
(-0.00151778 -0.0128625 0)
(-0.00187347 0.0179563 0)
(-0.0105546 0.0470159 0)
(-0.0268506 0.0671111 0)
(-0.0466996 0.0778755 0)
(-0.0672423 0.0801396 0)
(-0.0866656 0.0752619 0)
(-0.103671 0.0647507 0)
(-0.117378 0.0500338 0)
(-0.127226 0.032351 0)
(-0.132853 0.0127588 0)
(-0.134009 -0.00778646 0)
(-0.130525 -0.0283013 0)
(-0.122327 -0.0476403 0)
(-0.109523 -0.064391 0)
(-0.0925363 -0.076841 0)
(-0.072279 -0.0830673 0)
(-0.0502815 -0.0811836 0)
(-0.0287745 -0.0697392 0)
(-0.011148 -0.0482464 0)
(-0.00191398 -0.017924 0)
(-0.00231359 0.0239253 0)
(-0.0128117 0.0615531 0)
(-0.0321933 0.0867397 0)
(-0.0553707 0.0995451 0)
(-0.0788987 0.101482 0)
(-0.100754 0.094598 0)
(-0.119616 0.0809749 0)
(-0.134685 0.0624579 0)
(-0.145517 0.0405496 0)
(-0.151846 0.0164469 0)
(-0.153461 -0.00882505 0)
(-0.150151 -0.0342262 0)
(-0.14172 -0.0584997 0)
(-0.128085 -0.0799986 0)
(-0.109463 -0.0965936 0)
(-0.0866188 -0.105733 0)
(-0.061108 -0.104718 0)
(-0.0354793 -0.0912255 0)
(-0.0139627 -0.0640575 0)
(-0.00245159 -0.024256 0)
(-0.00288825 0.0312091 0)
(-0.0156046 0.0789619 0)
(-0.0385402 0.109783 0)
(-0.0652908 0.124455 0)
(-0.0917453 0.125519 0)
(-0.115733 0.115983 0)
(-0.136021 0.0986745 0)
(-0.152009 0.0759287 0)
(-0.163476 0.0495111 0)
(-0.170329 0.0207079 0)
(-0.172443 -0.00947075 0)
(-0.169579 -0.0400265 0)
(-0.161391 -0.069686 0)
(-0.147529 -0.0966317 0)
(-0.127868 -0.118314 0)
(-0.102855 -0.131434 0)
(-0.0738883 -0.132218 0)
(-0.0437347 -0.11705 0)
(-0.0175924 -0.0835487 0)
(-0.00318914 -0.0322493 0)
(-0.00365226 0.0401449 0)
(-0.0190728 0.0997576 0)
(-0.0459913 0.136562 0)
(-0.0763178 0.152581 0)
(-0.105235 0.151901 0)
(-0.130569 0.13886 0)
(-0.151369 0.117226 0)
(-0.167408 0.0898894 0)
(-0.178821 0.0588522 0)
(-0.185792 0.0254062 0)
(-0.18835 -0.00957144 0)
(-0.186259 -0.0452633 0)
(-0.179009 -0.0805248 0)
(-0.16591 -0.113495 0)
(-0.146341 -0.141264 0)
(-0.120187 -0.159712 0)
(-0.0883887 -0.163692 0)
(-0.0536723 -0.147737 0)
(-0.0222409 -0.107519 0)
(-0.00420804 -0.0424132 0)
(-0.00469835 0.0511772 0)
(-0.0234086 0.124478 0)
(-0.0545771 0.167185 0)
(-0.087998 0.18346 0)
(-0.118222 0.179713 0)
(-0.143374 0.162075 0)
(-0.163077 0.135456 0)
(-0.177711 0.103329 0)
(-0.187932 0.0678549 0)
(-0.194311 0.0302096 0)
(-0.197103 -0.00901556 0)
(-0.19613 -0.0493603 0)
(-0.190737 -0.0900077 0)
(-0.179853 -0.12926 0)
(-0.162218 -0.164016 0)
(-0.136855 -0.189363 0)
(-0.103797 -0.19852 0)
(-0.0652236 -0.18347 0)
(-0.0281438 -0.136779 0)
(-0.00563422 -0.0554071 0)
(-0.00619845 0.0649295 0)
(-0.0289115 0.153626 0)
(-0.0642128 0.201313 0)
(-0.0993761 0.215874 0)
(-0.128668 0.207158 0)
(-0.151052 0.183623 0)
(-0.167156 0.151462 0)
(-0.178236 0.114657 0)
(-0.18562 0.0753824 0)
(-0.190347 0.0345253 0)
(-0.192963 -0.00778289 0)
(-0.193411 -0.0516329 0)
(-0.190962 -0.0967721 0)
(-0.1842 -0.141958 0)
(-0.17115 -0.184213 0)
(-0.149695 -0.218061 0)
(-0.118369 -0.234997 0)
(-0.077953 -0.223709 0)
(-0.0355798 -0.171994 0)
(-0.00767658 -0.0721063 0)
(-0.00847606 0.082349 0)
(-0.0360518 0.187544 0)
(-0.0745367 0.237755 0)
(-0.108591 0.247368 0)
(-0.133114 0.231166 0)
(-0.1488 0.200399 0)
(-0.157813 0.162483 0)
(-0.162522 0.121665 0)
(-0.16499 0.0798682 0)
(-0.166716 0.0374801 0)
(-0.168539 -0.00599613 0)
(-0.170587 -0.0513698 0)
(-0.172185 -0.0991801 0)
(-0.171734 -0.148985 0)
(-0.166649 -0.198417 0)
(-0.153539 -0.241975 0)
(-0.128844 -0.269734 0)
(-0.0907018 -0.266565 0)
(-0.0448391 -0.213382 0)
(-0.0106833 -0.0937086 0)
(-0.012092 0.104936 0)
(-0.0454243 0.226072 0)
(-0.0843672 0.273753 0)
(-0.111968 0.273597 0)
(-0.125723 0.247 0)
(-0.129325 0.208077 0)
(-0.126962 0.164982 0)
(-0.122145 0.121686 0)
(-0.11751 0.0794727 0)
(-0.114833 0.038005 0)
(-0.115137 -0.00394767 0)
(-0.118755 -0.0479825 0)
(-0.125242 -0.0955624 0)
(-0.133149 -0.147358 0)
(-0.13968 -0.20222 0)
(-0.140426 -0.255548 0)
(-0.129432 -0.29698 0)
(-0.100771 -0.307835 0)
(-0.0559581 -0.260042 0)
(-0.0151647 -0.121845 0)
(-0.0177662 0.135126 0)
(-0.0570936 0.267677 0)
(-0.0900477 0.303692 0)
(-0.101974 0.287479 0)
(-0.0965342 0.24805 0)
(-0.0817065 0.201373 0)
(-0.0637002 0.155122 0)
(-0.0467069 0.112113 0)
(-0.03339 0.072509 0)
(-0.0253585 0.0350931 0)
(-0.0235519 -0.00206147 0)
(-0.0284428 -0.0412178 0)
(-0.0400068 -0.0846799 0)
(-0.0574199 -0.134353 0)
(-0.0784536 -0.190859 0)
(-0.0985983 -0.251725 0)
(-0.110083 -0.308086 0)
(-0.102036 -0.339638 0)
(-0.0676262 -0.308689 0)
(-0.0215183 -0.158742 0)
(-0.0254128 0.177197 0)
(-0.0678817 0.307251 0)
(-0.0810274 0.316536 0)
(-0.0630069 0.278031 0)
(-0.0285863 0.225989 0)
(0.010056 0.174899 0)
(0.0460186 0.129822 0)
(0.0757391 0.0913475 0)
(0.0975373 0.0581676 0)
(0.110653 0.028246 0)
(0.114631 -0.00075722 0)
(0.109016 -0.0313808 0)
(0.0933031 -0.0663579 0)
(0.0672002 -0.108541 0)
(0.0313259 -0.160464 0)
(-0.011424 -0.222901 0)
(-0.0536854 -0.291256 0)
(-0.0810253 -0.348383 0)
(-0.0739632 -0.351126 0)
(-0.0285908 -0.207685 0)
(-0.0293059 0.235329 0)
(-0.0626198 0.329464 0)
(-0.0295807 0.292129 0)
(0.0362139 0.230516 0)
(0.105994 0.172914 0)
(0.168157 0.125724 0)
(0.218865 0.0889497 0)
(0.257364 0.0604207 0)
(0.28417 0.0375883 0)
(0.30001 0.0180892 0)
(0.305254 -0.000253328 0)
(0.299657 -0.0196112 0)
(0.282263 -0.0424003 0)
(0.251469 -0.0715655 0)
(0.205469 -0.110781 0)
(0.14345 -0.164063 0)
(0.067979 -0.233533 0)
(-0.00949643 -0.312902 0)
(-0.0563174 -0.367307 0)
(-0.0280576 -0.268743 0)
(0.00848589 0.279173 0)
(0.0182843 0.292047 0)
(0.132121 0.207868 0)
(0.252898 0.140198 0)
(0.34795 0.0937502 0)
(0.418959 0.0623639 0)
(0.470742 0.0411794 0)
(0.507104 0.0265461 0)
(0.531087 0.0158723 0)
(0.544799 0.00735724 0)
(0.549314 -0.000354873 0)
(0.54467 -0.00848014 0)
(0.529806 -0.0183908 0)
(0.502384 -0.0319983 0)
(0.458616 -0.0523297 0)
(0.393238 -0.0842871 0)
(0.299208 -0.135205 0)
(0.171597 -0.213519 0)
(0.0434529 -0.311238 0)
(0.0212045 -0.300716 0)
(0.300103 0.145306 0)
(0.395832 0.126973 0)
(0.554002 0.0759405 0)
(0.669528 0.0435815 0)
(0.737356 0.0252899 0)
(0.778787 0.0148417 0)
(0.805329 0.00879022 0)
(0.8223 0.00516911 0)
(0.832704 0.00284623 0)
(0.838265 0.00117167 0)
(0.839798 -0.000260093 0)
(0.837416 -0.00176607 0)
(0.830543 -0.0036997 0)
(0.817711 -0.00661321 0)
(0.796071 -0.011551 0)
(0.760268 -0.0206117 0)
(0.698396 -0.0379779 0)
(0.585506 -0.0713769 0)
(0.419458 -0.126947 0)
(0.311535 -0.149233 0)
)
;

boundaryField
{
    movingWall
    {
        type            fixedValue;
        value           uniform (1 0 0);
    }
    fixedWalls
    {
        type            noSlip;
    }
    frontAndBack
    {
        type            empty;
    }
}


// ************************************************************************* //
