/*--------------------------------*- C++ -*----------------------------------*\
  =========                 |
  \\      /  F ield         | OpenFOAM: The Open Source CFD Toolbox
   \\    /   O peration     | Website:  https://openfoam.org
    \\  /    A nd           | Version:  6
     \\/     M anipulation  |
\*---------------------------------------------------------------------------*/
FoamFile
{
    version     2.0;
    format      ascii;
    class       volScalarField;
    location    "0.09";
    object      p;
}
// * * * * * * * * * * * * * * * * * * * * * * * * * * * * * * * * * * * * * //

dimensions      [0 2 -2 0 0 0 0];

internalField   nonuniform List<scalar> 
400
(
-1.16233e-09
-0.00313189
-0.00691886
-0.00969046
-0.0105408
-0.00908413
-0.00530055
0.000573887
0.00812437
0.0168041
0.0259667
0.0348987
0.0428648
0.0491706
0.0532484
0.0547636
0.0537372
0.0506676
0.0466498
0.043489
0.00310258
-0.000126512
-0.0030853
-0.0049482
-0.00529693
-0.00386119
-0.000607866
0.00429557
0.0105347
0.0176813
0.0252188
0.0325737
0.0391562
0.0444158
0.0479115
0.0493932
0.0488925
0.0467697
0.043607
0.0403691
0.00712445
0.0026381
-0.00057041
-0.00227033
-0.002512
-0.00116338
0.00177096
0.00613435
0.0116595
0.0179858
0.0246738
0.031228
0.0371309
0.041891
0.045102
0.0465116
0.0461036
0.0440982
0.0406269
0.0361042
0.0106323
0.00442824
0.000424821
-0.00153236
-0.00188797
-0.000635889
0.00216358
0.00633388
0.0116201
0.0176927
0.0241486
0.0305236
0.0363181
0.0410383
0.0442483
0.0456368
0.0451077
0.0427571
0.0383594
0.0320179
0.0127127
0.00469409
-0.000264368
-0.00260357
-0.00311276
-0.00189591
0.000930714
0.00516155
0.0105401
0.0167505
0.0234054
0.0300469
0.0361631
0.0412221
0.0447201
0.0462503
0.0456144
0.0427892
0.0372415
0.0288832
0.012675
0.00280126
-0.00316265
-0.00589669
-0.00650954
-0.00520518
-0.0021539
0.00240649
0.00821103
0.0149482
0.0222341
0.0296005
0.0365015
0.0423386
0.0465047
0.0484606
0.0478751
0.0445935
0.0377834
0.0272254
0.00989374
-0.00189065
-0.00885983
-0.0119253
-0.0125195
-0.0109473
-0.00743342
-0.00224916
0.00433104
0.0119982
0.0203681
0.0289556
0.0371669
0.0443138
0.0496515
0.0524629
0.0522378
0.0486506
0.0405269
0.0275235
0.00370348
-0.0100725
-0.0180035
-0.0212609
-0.0216386
-0.0195569
-0.0153011
-0.00917517
-0.00145849
0.00754986
0.0174734
0.0278151
0.0379318
0.0470305
0.0541953
0.0584769
0.0591176
0.0555436
0.0461314
0.0303662
-0.00668032
-0.0225534
-0.0313491
-0.0345655
-0.0344345
-0.0315253
-0.0261951
-0.0187802
-0.00955382
0.00121264
0.0131718
0.0258359
0.0385264
0.0503453
0.0601776
0.0667798
0.0690509
0.0660436
0.0554935
0.0365975
-0.0222296
-0.040323
-0.0497937
-0.0525914
-0.0515186
-0.0473501
-0.0405358
-0.0314424
-0.0203186
-0.00737853
0.0070968
0.0226696
0.038664
0.0540986
0.0676491
0.0777153
0.0827324
0.0811918
0.0698794
0.047476
-0.0441952
-0.0646338
-0.0744103
-0.0761607
-0.0734816
-0.0674422
-0.0586135
-0.0473873
-0.03396
-0.0184446
-0.00099998
0.0180511
0.0381036
0.0581517
0.0766862
0.0917084
0.101055
0.102398
0.0910988
0.0648951
-0.0742793
-0.0971375
-0.106491
-0.10612
-0.100786
-0.0919788
-0.0804205
-0.0665109
-0.0503499
-0.0318879
-0.0110853
0.0119419
0.0367658
0.0624664
0.0874368
0.109294
0.125161
0.131569
0.121755
0.091732
-0.115004
-0.140122
-0.147594
-0.143245
-0.133588
-0.12069
-0.105425
-0.0881537
-0.0688056
-0.0470816
-0.0226453
0.00471219
0.0348863
0.0672184
0.100185
0.131146
0.156484
0.171256
0.165616
0.132463
-0.170538
-0.196931
-0.199561
-0.18804
-0.171458
-0.152559
-0.132294
-0.110859
-0.08788
-0.0626846
-0.0345181
-0.00270796
0.0331443
0.0728843
0.115381
0.158053
0.196728
0.224792
0.228189
0.194349
-0.248503
-0.272625
-0.264355
-0.240271
-0.212884
-0.185418
-0.158602
-0.132184
-0.105256
-0.0765958
-0.0448855
-0.00884289
0.0326259
0.0801633
0.133477
0.19065
0.247564
0.296207
0.31746
0.289667
-0.36336
-0.374716
-0.343499
-0.298217
-0.254655
-0.215556
-0.180671
-0.148738
-0.117927
-0.0862251
-0.0515935
-0.0120118
0.0344796
0.0896217
0.154526
0.228898
0.309968
0.38961
0.444284
0.438992
-0.542797
-0.513481
-0.437124
-0.35815
-0.291745
-0.237931
-0.194066
-0.15686
-0.122973
-0.0893062
-0.0529701
-0.0111286
0.0391536
0.100986
0.177535
0.271471
0.38343
0.507974
0.622178
0.676535
-0.851331
-0.70195
-0.538585
-0.410522
-0.315337
-0.245498
-0.19375
-0.153264
-0.118473
-0.0849895
-0.0490809
-0.00717545
0.0445889
0.110826
0.197406
0.311624
0.460457
0.647337
0.869386
1.0756
-1.46391
-0.947068
-0.606031
-0.417467
-0.298977
-0.221286
-0.169619
-0.132584
-0.102348
-0.0736351
-0.0423894
-0.00484982
0.0431935
0.107306
0.195844
0.321734
0.50266
0.767938
1.19901
1.81766
-2.53889
-1.17836
-0.553608
-0.323425
-0.212351
-0.15045
-0.115315
-0.0930309
-0.075363
-0.0575903
-0.0364537
-0.00903244
0.0280265
0.0795263
0.153763
0.26648
0.447763
0.775047
1.51442
2.9895
)
;

boundaryField
{
    movingWall
    {
        type            zeroGradient;
    }
    fixedWalls
    {
        type            zeroGradient;
    }
    frontAndBack
    {
        type            empty;
    }
}


// ************************************************************************* //
