/*--------------------------------*- C++ -*----------------------------------*\
  =========                 |
  \\      /  F ield         | OpenFOAM: The Open Source CFD Toolbox
   \\    /   O peration     | Website:  https://openfoam.org
    \\  /    A nd           | Version:  6
     \\/     M anipulation  |
\*---------------------------------------------------------------------------*/
FoamFile
{
    version     2.0;
    format      ascii;
    class       volVectorField;
    location    "0.09";
    object      U;
}
// * * * * * * * * * * * * * * * * * * * * * * * * * * * * * * * * * * * * * //

dimensions      [0 1 -1 0 0 0 0];

internalField   nonuniform List<vector> 
400
(
(0.000215299 -0.000212637 0)
(8.56558e-05 0.00012452 0)
(-0.00113448 0.000531421 0)
(-0.00323521 0.000813004 0)
(-0.00585128 0.000951158 0)
(-0.00863089 0.000962398 0)
(-0.0112666 0.000869575 0)
(-0.013505 0.000695281 0)
(-0.0151485 0.000459898 0)
(-0.0160537 0.000182647 0)
(-0.0161335 -0.000116289 0)
(-0.0153623 -0.000413796 0)
(-0.013785 -0.000682697 0)
(-0.0115263 -0.000891867 0)
(-0.00879634 -0.00100792 0)
(-0.00588919 -0.000998961 0)
(-0.00316706 -0.000841111 0)
(-0.00102668 -0.000527838 0)
(0.000161525 -9.76635e-05 0)
(0.000237691 0.000231914 0)
(-9.54788e-05 -0.000111243 0)
(-0.00153044 0.00155539 0)
(-0.00526028 0.00332209 0)
(-0.0107236 0.00456885 0)
(-0.0171881 0.00517939 0)
(-0.0239333 0.00518303 0)
(-0.0302828 0.00466056 0)
(-0.0356532 0.00371064 0)
(-0.0395791 0.00243574 0)
(-0.041723 0.00094125 0)
(-0.0418851 -0.000659457 0)
(-0.0400162 -0.00223956 0)
(-0.0362344 -0.00365641 0)
(-0.0308393 -0.00475479 0)
(-0.0243171 -0.00537799 0)
(-0.0173258 -0.00538864 0)
(-0.0106439 -0.0047012 0)
(-0.00507988 -0.00332586 0)
(-0.001387 -0.00145817 0)
(-4.85743e-05 0.00019293 0)
(-0.00050662 0.00106352 0)
(-0.00343766 0.00530252 0)
(-0.00969856 0.0093188 0)
(-0.0182133 0.0121215 0)
(-0.027926 0.01345 0)
(-0.0378738 0.0133322 0)
(-0.0471438 0.0119295 0)
(-0.054938 0.00946502 0)
(-0.0606161 0.0061876 0)
(-0.0637128 0.0023639 0)
(-0.0639527 -0.00171631 0)
(-0.0612692 -0.0057321 0)
(-0.0558247 -0.00932951 0)
(-0.0480281 -0.0121325 0)
(-0.0385397 -0.0137722 0)
(-0.0282502 -0.0139377 0)
(-0.0182094 -0.0124526 0)
(-0.00950901 -0.00936932 0)
(-0.00325542 -0.00511497 0)
(-0.000441011 -0.00087906 0)
(-0.000871704 0.00326646 0)
(-0.00524361 0.0112275 0)
(-0.0139959 0.0181232 0)
(-0.0254416 0.0227767 0)
(-0.0381647 0.0248527 0)
(-0.0509863 0.0244137 0)
(-0.062814 0.0217328 0)
(-0.0727017 0.0171902 0)
(-0.0798926 0.0112185 0)
(-0.0838358 0.00428642 0)
(-0.0842007 -0.00309507 0)
(-0.0808974 -0.0103624 0)
(-0.0741015 -0.0168976 0)
(-0.0642777 -0.0220477 0)
(-0.0521931 -0.0251743 0)
(-0.0389032 -0.0257397 0)
(-0.025679 -0.0234304 0)
(-0.0138876 -0.0183029 0)
(-0.0050507 -0.0109659 0)
(-0.000789293 -0.0029528 0)
(-0.00119829 0.006395 0)
(-0.00695398 0.0192169 0)
(-0.0181688 0.0295844 0)
(-0.0325077 0.0362999 0)
(-0.0481593 0.0390676 0)
(-0.0637252 0.0380606 0)
(-0.0779585 0.0337141 0)
(-0.0898026 0.026601 0)
(-0.0984227 0.0173638 0)
(-0.103209 0.00669495 0)
(-0.103787 -0.00465389 0)
(-0.100029 -0.0158544 0)
(-0.0920948 -0.0259959 0)
(-0.0804572 -0.0341091 0)
(-0.0659402 -0.0392332 0)
(-0.0497248 -0.040537 0)
(-0.0332924 -0.0374912 0)
(-0.0183173 -0.0300689 0)
(-0.00681288 -0.0189631 0)
(-0.00110706 -0.00594544 0)
(-0.0015128 0.0104033 0)
(-0.00864552 0.0292544 0)
(-0.0223425 0.04372 0)
(-0.0395934 0.0527066 0)
(-0.0581621 0.0560837 0)
(-0.0764248 0.0542349 0)
(-0.0929968 0.0478277 0)
(-0.106741 0.0376717 0)
(-0.116775 0.0246425 0)
(-0.122454 0.00966569 0)
(-0.123363 -0.00626372 0)
(-0.119327 -0.0220488 0)
(-0.110453 -0.0364723 0)
(-0.0971765 -0.0482154 0)
(-0.0803266 -0.0559347 0)
(-0.0611737 -0.0584148 0)
(-0.0414042 -0.054795 0)
(-0.0230398 -0.0448372 0)
(-0.0086718 -0.029205 0)
(-0.00143211 -0.00985245 0)
(-0.00183917 0.0152992 0)
(-0.0103972 0.04138 0)
(-0.026648 0.060583 0)
(-0.046858 0.0720316 0)
(-0.0683387 0.0759014 0)
(-0.0892424 0.0729078 0)
(-0.10807 0.0640379 0)
(-0.123642 0.0503891 0)
(-0.135066 0.0330907 0)
(-0.141691 0.0132983 0)
(-0.143071 -0.00776532 0)
(-0.138972 -0.0287512 0)
(-0.129411 -0.0481396 0)
(-0.114729 -0.0642382 0)
(-0.0956975 -0.0752562 0)
(-0.0736187 -0.0794803 0)
(-0.0503603 -0.0755617 0)
(-0.0283212 -0.0628757 0)
(-0.0107722 -0.041909 0)
(-0.00180352 -0.0147553 0)
(-0.00219769 0.0211342 0)
(-0.0122771 0.0556858 0)
(-0.031189 0.0802464 0)
(-0.0543935 0.0942896 0)
(-0.0787182 0.0984674 0)
(-0.102108 0.0939774 0)
(-0.122995 0.0822324 0)
(-0.140212 0.0646752 0)
(-0.152915 0.0427034 0)
(-0.160487 0.0176849 0)
(-0.162477 -0.00896695 0)
(-0.158583 -0.0356943 0)
(-0.148697 -0.0607047 0)
(-0.132997 -0.0819286 0)
(-0.112101 -0.0970672 0)
(-0.0872498 -0.103777 0)
(-0.0604262 -0.100017 0)
(-0.0344066 -0.0845314 0)
(-0.0132578 -0.0574138 0)
(-0.00226033 -0.0208187 0)
(-0.00260784 0.0279965 0)
(-0.0143462 0.0723051 0)
(-0.0360378 0.102779 0)
(-0.0622062 0.119427 0)
(-0.0891612 0.123606 0)
(-0.114681 0.117188 0)
(-0.137207 0.102138 0)
(-0.155673 0.0803078 0)
(-0.169366 0.0533707 0)
(-0.177772 0.0228702 0)
(-0.180474 -0.0096552 0)
(-0.177111 -0.042515 0)
(-0.167415 -0.0737116 0)
(-0.151319 -0.100829 0)
(-0.129165 -0.121024 0)
(-0.101981 -0.131181 0)
(-0.0717254 -0.128312 0)
(-0.0414956 -0.110188 0)
(-0.0162704 -0.076167 0)
(-0.00284491 -0.0282883 0)
(-0.00309591 0.0360114 0)
(-0.0166769 0.0913991 0)
(-0.0412518 0.128201 0)
(-0.0702169 0.147247 0)
(-0.0993359 0.150919 0)
(-0.126305 0.142012 0)
(-0.149699 0.123204 0)
(-0.168685 0.0968177 0)
(-0.182802 0.064794 0)
(-0.191732 0.0287925 0)
(-0.19516 -0.00961994 0)
(-0.192693 -0.0487385 0)
(-0.183881 -0.086479 0)
(-0.168329 -0.120167 0)
(-0.145945 -0.146423 0)
(-0.117325 -0.161241 0)
(-0.0841672 -0.160386 0)
(-0.049723 -0.140177 0)
(-0.0199599 -0.0986968 0)
(-0.00361069 -0.0374948 0)
(-0.00370902 0.0453585 0)
(-0.0193871 0.113154 0)
(-0.0469043 0.156431 0)
(-0.0782619 0.177303 0)
(-0.108681 0.179648 0)
(-0.135935 0.167518 0)
(-0.158929 0.144475 0)
(-0.17725 0.113373 0)
(-0.190839 0.0763896 0)
(-0.199702 0.0352114 0)
(-0.203711 -0.00869898 0)
(-0.202501 -0.0537854 0)
(-0.195442 -0.0980569 0)
(-0.181743 -0.138747 0)
(-0.16071 -0.172038 0)
(-0.13222 -0.192976 0)
(-0.0973374 -0.195762 0)
(-0.0591272 -0.174644 0)
(-0.0245018 -0.12557 0)
(-0.00463582 -0.04887 0)
(-0.00454079 0.05632 0)
(-0.0226945 0.137791 0)
(-0.0531173 0.187204 0)
(-0.0860685 0.208754 0)
(-0.116322 0.208509 0)
(-0.14202 0.192195 0)
(-0.162691 0.164444 0)
(-0.178583 0.128661 0)
(-0.19022 0.0871929 0)
(-0.198063 0.0416268 0)
(-0.202281 -0.0068421 0)
(-0.202612 -0.0570091 0)
(-0.198301 -0.107217 0)
(-0.188137 -0.15487 0)
(-0.170681 -0.195943 0)
(-0.14477 -0.224611 0)
(-0.110314 -0.233268 0)
(-0.0695823 -0.213327 0)
(-0.0301189 -0.157324 0)
(-0.00604699 -0.0629865 0)
(-0.00577723 0.0693833 0)
(-0.0269926 0.165582 0)
(-0.0600639 0.219936 0)
(-0.0931351 0.240139 0)
(-0.120857 0.235457 0)
(-0.142249 0.213776 0)
(-0.157881 0.180923 0)
(-0.168936 0.140803 0)
(-0.176694 0.0957914 0)
(-0.182181 0.0472143 0)
(-0.185952 -0.00418518 0)
(-0.187949 -0.0577729 0)
(-0.187391 -0.112506 0)
(-0.182722 -0.166317 0)
(-0.171711 -0.215372 0)
(-0.151876 -0.253293 0)
(-0.121348 -0.270634 0)
(-0.0806416 -0.255209 0)
(-0.037098 -0.194335 0)
(-0.0080593 -0.0806348 0)
(-0.00777314 0.085427 0)
(-0.0329313 0.196814 0)
(-0.0678404 0.25343 0)
(-0.0983667 0.269007 0)
(-0.119861 0.257386 0)
(-0.133059 0.229045 0)
(-0.140092 0.190972 0)
(-0.14333 0.147347 0)
(-0.144894 0.100343 0)
(-0.146393 0.0508184 0)
(-0.148797 -0.00111047 0)
(-0.152337 -0.0555692 0)
(-0.156364 -0.112396 0)
(-0.159179 -0.170458 0)
(-0.157919 -0.226689 0)
(-0.148703 -0.274821 0)
(-0.127303 -0.303988 0)
(-0.0911761 -0.297936 0)
(-0.0457483 -0.236524 0)
(-0.0110308 -0.102943 0)
(-0.0111425 0.106002 0)
(-0.0413835 0.231561 0)
(-0.0759298 0.285272 0)
(-0.0991291 0.291343 0)
(-0.108836 0.269786 0)
(-0.108714 0.233768 0)
(-0.102952 0.191005 0)
(-0.0951707 0.145474 0)
(-0.0882075 0.0987736 0)
(-0.0840917 0.0510755 0)
(-0.084103 0.00175206 0)
(-0.0887792 -0.0501706 0)
(-0.097791 -0.10557 0)
(-0.109658 -0.164598 0)
(-0.121351 -0.22564 0)
(-0.12795 -0.283585 0)
(-0.122671 -0.327314 0)
(-0.0985342 -0.336927 0)
(-0.0561021 -0.282708 0)
(-0.0154739 -0.131486 0)
(-0.0166947 0.133768 0)
(-0.0528068 0.268903 0)
(-0.0814981 0.310605 0)
(-0.0890389 0.300737 0)
(-0.079166 0.266521 0)
(-0.0597707 0.222921 0)
(-0.0371592 0.17728 0)
(-0.015801 0.132542 0)
(0.00126127 0.0892627 0)
(0.0120194 0.046751 0)
(0.0151765 0.00364633 0)
(0.00998461 -0.0417728 0)
(-0.00369852 -0.0913474 0)
(-0.0250833 -0.146641 0)
(-0.0517983 -0.20806 0)
(-0.0789251 -0.272961 0)
(-0.0979047 -0.332092 0)
(-0.0966508 -0.364122 0)
(-0.0667551 -0.329337 0)
(-0.0217452 -0.168435 0)
(-0.0245168 0.173442 0)
(-0.0645478 0.304748 0)
(-0.0747865 0.319473 0)
(-0.0533172 0.287046 0)
(-0.0146524 0.239811 0)
(0.029028 0.191447 0)
(0.0705089 0.146913 0)
(0.105719 0.107073 0)
(0.132416 0.0710551 0)
(0.149334 0.0373091 0)
(0.155621 0.00397388 0)
(0.15055 -0.0310578 0)
(0.133476 -0.0701752 0)
(0.104068 -0.116024 0)
(0.0630128 -0.171113 0)
(0.0134304 -0.236356 0)
(-0.0367962 -0.307256 0)
(-0.0722447 -0.366163 0)
(-0.0715965 -0.368017 0)
(-0.0285306 -0.216975 0)
(-0.0292622 0.230093 0)
(-0.0619972 0.325091 0)
(-0.0282506 0.292665 0)
(0.0396567 0.236076 0)
(0.113282 0.182062 0)
(0.180675 0.13666 0)
(0.237365 0.100057 0)
(0.281874 0.0704437 0)
(0.314053 0.0456522 0)
(0.334116 0.0236779 0)
(0.342093 0.00266948 0)
(0.337565 -0.019259 0)
(0.319542 -0.0442949 0)
(0.286482 -0.0752511 0)
(0.236661 -0.115835 0)
(0.169349 -0.170345 0)
(0.087255 -0.241379 0)
(0.0021839 -0.322827 0)
(-0.0517889 -0.378599 0)
(-0.0271341 -0.276633 0)
(0.0064285 0.275305 0)
(0.0147241 0.288824 0)
(0.127721 0.207859 0)
(0.249809 0.143141 0)
(0.348387 0.0984225 0)
(0.424317 0.0676301 0)
(0.481581 0.0462371 0)
(0.523252 0.0308803 0)
(0.551809 0.0191781 0)
(0.568996 0.00949314 0)
(0.575701 0.000608705 0)
(0.571934 -0.00856618 0)
(0.556731 -0.0192908 0)
(0.527946 -0.0333879 0)
(0.481988 -0.0538636 0)
(0.413711 -0.0857779 0)
(0.316037 -0.136945 0)
(0.183697 -0.21639 0)
(0.0500456 -0.315722 0)
(0.0238586 -0.30489 0)
(0.298051 0.144393 0)
(0.391598 0.126593 0)
(0.548625 0.0766118 0)
(0.665285 0.0448509 0)
(0.735574 0.0267276 0)
(0.779886 0.0161848 0)
(0.809275 0.00991336 0)
(0.82875 0.00602151 0)
(0.841117 0.00341238 0)
(0.848005 0.00145791 0)
(0.85021 -0.000227734 0)
(0.847892 -0.00193963 0)
(0.840585 -0.00400422 0)
(0.826989 -0.00693911 0)
(0.804458 -0.0117495 0)
(0.767847 -0.0205211 0)
(0.705454 -0.0375344 0)
(0.591948 -0.0708044 0)
(0.423802 -0.126871 0)
(0.313469 -0.149794 0)
)
;

boundaryField
{
    movingWall
    {
        type            fixedValue;
        value           uniform (1 0 0);
    }
    fixedWalls
    {
        type            noSlip;
    }
    frontAndBack
    {
        type            empty;
    }
}


// ************************************************************************* //
