/*--------------------------------*- C++ -*----------------------------------*\
  =========                 |
  \\      /  F ield         | OpenFOAM: The Open Source CFD Toolbox
   \\    /   O peration     | Website:  https://openfoam.org
    \\  /    A nd           | Version:  6
     \\/     M anipulation  |
\*---------------------------------------------------------------------------*/
FoamFile
{
    version     2.0;
    format      ascii;
    class       volVectorField;
    location    "0.055";
    object      U;
}
// * * * * * * * * * * * * * * * * * * * * * * * * * * * * * * * * * * * * * //

dimensions      [0 1 -1 0 0 0 0];

internalField   nonuniform List<vector> 
400
(
(0.000257227 -0.000253616 0)
(0.000160012 0.000105893 0)
(-0.00114407 0.00056541 0)
(-0.00345396 0.00089466 0)
(-0.00637509 0.00106132 0)
(-0.00949924 0.00107733 0)
(-0.0124581 0.000967409 0)
(-0.0149476 0.000760389 0)
(-0.0167382 0.000484979 0)
(-0.0176762 0.00016864 0)
(-0.0176836 -0.000162053 0)
(-0.0167576 -0.000480567 0)
(-0.0149719 -0.00075953 0)
(-0.0124786 -0.000970135 0)
(-0.00950886 -0.00108224 0)
(-0.00637145 -0.00106605 0)
(-0.0034406 -0.000896878 0)
(-0.00112898 -0.000564079 0)
(0.00016934 -0.000102417 0)
(0.000259751 0.000255532 0)
(-6.70065e-05 -0.000189808 0)
(-0.00156987 0.00161558 0)
(-0.00562682 0.00361312 0)
(-0.0116668 0.0050657 0)
(-0.0188885 0.00579748 0)
(-0.0264577 0.0058144 0)
(-0.0335731 0.00520248 0)
(-0.0395439 0.00408636 0)
(-0.0438343 0.00260533 0)
(-0.0460794 0.000902754 0)
(-0.0460932 -0.000877024 0)
(-0.0438707 -0.00258847 0)
(-0.0395899 -0.00408398 0)
(-0.0336123 -0.0052147 0)
(-0.0264768 -0.00583548 0)
(-0.0188825 -0.00581782 0)
(-0.0116416 -0.0050758 0)
(-0.00559694 -0.00360861 0)
(-0.00155005 -0.00160141 0)
(-6.11229e-05 0.000199343 0)
(-0.00051263 0.00103761 0)
(-0.00365348 0.00566768 0)
(-0.010505 0.0102133 0)
(-0.0199354 0.0134728 0)
(-0.0307788 0.0150606 0)
(-0.0419177 0.0149512 0)
(-0.0522739 0.0133165 0)
(-0.0609093 0.0104374 0)
(-0.0670915 0.00664657 0)
(-0.0703205 0.00229862 0)
(-0.0703402 -0.00224301 0)
(-0.0671442 -0.00661029 0)
(-0.0609777 -0.0104328 0)
(-0.0523357 -0.0133441 0)
(-0.0419539 -0.0149987 0)
(-0.0307806 -0.0151073 0)
(-0.0199086 -0.0134977 0)
(-0.0104676 -0.0102059 0)
(-0.00362636 -0.00563701 0)
(-0.000503993 -0.00101394 0)
(-0.00090722 0.00338255 0)
(-0.00562446 0.0121113 0)
(-0.0152228 0.019919 0)
(-0.0278978 0.0253248 0)
(-0.0420738 0.0278008 0)
(-0.056377 0.0273293 0)
(-0.0695176 0.0242058 0)
(-0.0803883 0.018911 0)
(-0.0881324 0.0120206 0)
(-0.0921686 0.00415335 0)
(-0.0921995 -0.00405345 0)
(-0.0882164 -0.0119538 0)
(-0.0805019 -0.0188989 0)
(-0.0696299 -0.0242503 0)
(-0.0564591 -0.027411 0)
(-0.0421091 -0.0278851 0)
(-0.0278881 -0.0253751 0)
(-0.0151883 -0.0199144 0)
(-0.00559347 -0.0120628 0)
(-0.000896139 -0.00334018 0)
(-0.00125556 0.00673193 0)
(-0.00747741 0.0208178 0)
(-0.0197776 0.032553 0)
(-0.0356334 0.0403393 0)
(-0.0530136 0.0436248 0)
(-0.07028 0.0424849 0)
(-0.0859582 0.0374034 0)
(-0.0988182 0.0291107 0)
(-0.107929 0.0184644 0)
(-0.112669 0.00637932 0)
(-0.112721 -0.00620652 0)
(-0.108072 -0.0183435 0)
(-0.099019 -0.0290767 0)
(-0.0861714 -0.0374625 0)
(-0.0704601 -0.0426103 0)
(-0.0531286 -0.0437648 0)
(-0.0356754 -0.0404357 0)
(-0.0197662 -0.0325672 0)
(-0.00744999 -0.0207576 0)
(-0.00124307 -0.00666883 0)
(-0.0015877 0.0110272 0)
(-0.00930018 0.0317564 0)
(-0.0243127 0.0481158 0)
(-0.043346 0.058501 0)
(-0.0638724 0.0624673 0)
(-0.0839768 0.0602997 0)
(-0.102019 0.052761 0)
(-0.116685 0.0408946 0)
(-0.127015 0.02588 0)
(-0.132381 0.00894857 0)
(-0.132466 -0.00865165 0)
(-0.127255 -0.0256618 0)
(-0.117032 -0.0408107 0)
(-0.102405 -0.052826 0)
(-0.0843301 -0.0604807 0)
(-0.0641361 -0.0626915 0)
(-0.0434936 -0.0586799 0)
(-0.0243578 -0.0481818 0)
(-0.00928982 -0.031704 0)
(-0.00157619 -0.0109463 0)
(-0.00193382 0.016273 0)
(-0.0111942 0.0449657 0)
(-0.0289992 0.066651 0)
(-0.0512449 0.0798135 0)
(-0.0748641 0.0842657 0)
(-0.0976621 0.0806483 0)
(-0.117863 0.0701189 0)
(-0.134119 0.0541106 0)
(-0.145492 0.034163 0)
(-0.151393 0.0118328 0)
(-0.151527 -0.0113319 0)
(-0.145874 -0.0337789 0)
(-0.134681 -0.0539291 0)
(-0.11851 -0.0701707 0)
(-0.0982845 -0.080897 0)
(-0.0753677 -0.0846139 0)
(-0.0515723 -0.0801316 0)
(-0.0291487 -0.0668257 0)
(-0.0112216 -0.0449606 0)
(-0.00192735 -0.0161858 0)
(-0.00232231 0.0225336 0)
(-0.0132581 0.0605598 0)
(-0.0339958 0.0882393 0)
(-0.0594889 0.104264 0)
(-0.0860808 0.108895 0)
(-0.111315 0.103316 0)
(-0.133339 0.0892234 0)
(-0.150845 0.0685256 0)
(-0.162993 0.0431552 0)
(-0.169286 0.0149856 0)
(-0.169486 -0.0141695 0)
(-0.163561 -0.0425075 0)
(-0.151696 -0.0681753 0)
(-0.134341 -0.0892281 0)
(-0.112315 -0.103642 0)
(-0.0869323 -0.109418 0)
(-0.0600884 -0.104801 0)
(-0.0343128 -0.0886096 0)
(-0.0133522 -0.0606689 0)
(-0.002327 -0.0224646 0)
(-0.00278293 0.0299291 0)
(-0.0155898 0.0787229 0)
(-0.0394375 0.112977 0)
(-0.068154 0.131775 0)
(-0.0974405 0.136098 0)
(-0.124633 0.127919 0)
(-0.147905 0.109648 0)
(-0.166108 0.0837606 0)
(-0.178601 0.0526018 0)
(-0.185059 0.0183259 0)
(-0.185335 -0.0170545 0)
(-0.179392 -0.0515646 0)
(-0.167308 -0.0831446 0)
(-0.149347 -0.109551 0)
(-0.126114 -0.128321 0)
(-0.0987525 -0.136851 0)
(-0.0691291 -0.132632 0)
(-0.0399972 -0.113664 0)
(-0.0157873 -0.0790475 0)
(-0.00280723 -0.0299205 0)
(-0.00335447 0.0386394 0)
(-0.0183021 0.0996977 0)
(-0.0454393 0.140924 0)
(-0.0772079 0.162116 0)
(-0.108628 0.165371 0)
(-0.136943 0.153785 0)
(-0.160529 0.130687 0)
(-0.178563 0.0992089 0)
(-0.190744 0.062098 0)
(-0.197015 0.0217169 0)
(-0.197369 -0.019833 0)
(-0.191767 -0.0605259 0)
(-0.180134 -0.0982073 0)
(-0.162457 -0.130411 0)
(-0.138979 -0.154245 0)
(-0.110495 -0.166406 0)
(-0.0786587 -0.163411 0)
(-0.0463234 -0.142082 0)
(-0.0186471 -0.100378 0)
(-0.00340944 -0.0387553 0)
(-0.00409894 0.0489234 0)
(-0.0215511 0.123774 0)
(-0.052105 0.172035 0)
(-0.08647 0.194773 0)
(-0.119001 0.195815 0)
(-0.147077 0.179809 0)
(-0.169539 0.151239 0)
(-0.186127 0.113951 0)
(-0.197052 0.0710377 0)
(-0.202628 0.0249443 0)
(-0.203045 -0.0222981 0)
(-0.198267 -0.0687847 0)
(-0.188024 -0.112431 0)
(-0.171919 -0.150682 0)
(-0.149664 -0.180278 0)
(-0.121462 -0.197159 0)
(-0.0884672 -0.19662 0)
(-0.0533884 -0.173841 0)
(-0.0220917 -0.12499 0)
(-0.0041984 -0.0492546 0)
(-0.00512672 0.0611669 0)
(-0.0255789 0.151278 0)
(-0.059521 0.206029 0)
(-0.0955195 0.228761 0)
(-0.127425 0.225929 0)
(-0.15316 0.204287 0)
(-0.172422 0.169687 0)
(-0.1858 0.12668 0)
(-0.194196 0.0785714 0)
(-0.198399 0.0276993 0)
(-0.19884 -0.0241878 0)
(-0.195494 -0.0755249 0)
(-0.187867 -0.124517 0)
(-0.17509 -0.168725 0)
(-0.156167 -0.204673 0)
(-0.130409 -0.227562 0)
(-0.0980628 -0.23124 0)
(-0.0612497 -0.208662 0)
(-0.0263615 -0.153241 0)
(-0.00528721 -0.0618331 0)
(-0.00664081 0.0759781 0)
(-0.0307669 0.182537 0)
(-0.0676932 0.242181 0)
(-0.103481 0.262326 0)
(-0.131967 0.253351 0)
(-0.152296 0.224729 0)
(-0.165542 0.183795 0)
(-0.173445 0.135661 0)
(-0.177742 0.0835967 0)
(-0.179744 0.0295726 0)
(-0.18014 -0.0251947 0)
(-0.178925 -0.0797262 0)
(-0.175386 -0.132777 0)
(-0.168155 -0.182304 0)
(-0.155394 -0.22489 0)
(-0.135224 -0.255168 0)
(-0.106438 -0.265432 0)
(-0.0698458 -0.245772 0)
(-0.0318244 -0.185465 0)
(-0.00688098 -0.0771276 0)
(-0.00900643 0.094352 0)
(-0.0376715 0.217752 0)
(-0.076315 0.278914 0)
(-0.108547 0.292499 0)
(-0.129323 0.274539 0)
(-0.140053 0.237718 0)
(-0.143767 0.190705 0)
(-0.143574 0.138789 0)
(-0.142051 0.0848174 0)
(-0.140967 0.0300775 0)
(-0.14122 -0.024995 0)
(-0.142836 -0.0802339 0)
(-0.144949 -0.135203 0)
(-0.14578 -0.188593 0)
(-0.14267 -0.237468 0)
(-0.132351 -0.276322 0)
(-0.111572 -0.296083 0)
(-0.078743 -0.283473 0)
(-0.0390002 -0.221821 0)
(-0.00934449 -0.0961548 0)
(-0.0128139 0.11789 0)
(-0.0468844 0.2566 0)
(-0.0840765 0.313045 0)
(-0.106943 0.314498 0)
(-0.113815 0.284509 0)
(-0.109709 0.23895 0)
(-0.100035 0.187141 0)
(-0.0891902 0.133833 0)
(-0.0803257 0.0809311 0)
(-0.0754149 0.0287232 0)
(-0.075417 -0.0233098 0)
(-0.0803892 -0.0759416 0)
(-0.0894726 -0.129724 0)
(-0.10075 -0.184409 0)
(-0.111045 -0.238099 0)
(-0.115822 -0.285923 0)
(-0.109397 -0.318201 0)
(-0.0864139 -0.318358 0)
(-0.0483958 -0.261854 0)
(-0.0132576 -0.120514 0)
(-0.0187191 0.149116 0)
(-0.0581663 0.297217 0)
(-0.0868002 0.338473 0)
(-0.0908342 0.321008 0)
(-0.0757375 0.276833 0)
(-0.0512675 0.223677 0)
(-0.0249722 0.17001 0)
(-0.00185064 0.118985 0)
(0.0150497 0.0710028 0)
(0.0240471 0.0251624 0)
(0.0243767 -0.0200011 0)
(0.0159597 -0.0661261 0)
(-0.000591155 -0.114735 0)
(-0.0237207 -0.166832 0)
(-0.0504485 -0.222124 0)
(-0.0757228 -0.277491 0)
(-0.0917557 -0.324248 0)
(-0.0883552 -0.343992 0)
(-0.0595862 -0.303428 0)
(-0.0192315 -0.152674 0)
(-0.0262688 0.192206 0)
(-0.067421 0.333818 0)
(-0.0730112 0.343735 0)
(-0.0444349 0.301331 0)
(0.00103525 0.244107 0)
(0.049534 0.187762 0)
(0.0931346 0.137493 0)
(0.127798 0.0937123 0)
(0.151692 0.0550058 0)
(0.164095 0.019403 0)
(0.164749 -0.015192 0)
(0.153578 -0.050909 0)
(0.130684 -0.0899073 0)
(0.0966209 -0.134285 0)
(0.0530595 -0.185638 0)
(0.0039432 -0.243741 0)
(-0.0427252 -0.303429 0)
(-0.0727386 -0.348562 0)
(-0.0681303 -0.340317 0)
(-0.0266744 -0.196652 0)
(-0.0286682 0.250106 0)
(-0.0579613 0.349858 0)
(-0.0146288 0.309015 0)
(0.0622841 0.242294 0)
(0.141809 0.180542 0)
(0.21158 0.130345 0)
(0.267462 0.0911022 0)
(0.308671 0.0601129 0)
(0.335756 0.0345711 0)
(0.349484 0.0120812 0)
(0.350306 -0.00941911 0)
(0.338181 -0.0318862 0)
(0.31256 -0.0574244 0)
(0.27254 -0.0885255 0)
(0.217371 -0.128169 0)
(0.147604 -0.179321 0)
(0.067196 -0.242855 0)
(-0.0114954 -0.312147 0)
(-0.0569156 -0.355358 0)
(-0.0284567 -0.254841 0)
(0.0136401 0.288402 0)
(0.0297046 0.302273 0)
(0.152938 0.213909 0)
(0.281401 0.142477 0)
(0.381622 0.0942256 0)
(0.455947 0.0622704 0)
(0.50955 0.0408373 0)
(0.546403 0.0257994 0)
(0.569546 0.0144281 0)
(0.580975 0.00494071 0)
(0.581654 -0.00394715 0)
(0.571588 -0.0133704 0)
(0.549814 -0.024621 0)
(0.514295 -0.0395076 0)
(0.461872 -0.0608333 0)
(0.388348 -0.0929105 0)
(0.288217 -0.141852 0)
(0.158678 -0.214821 0)
(0.0332942 -0.305062 0)
(0.0153876 -0.291422 0)
(0.304632 0.147055 0)
(0.405636 0.127652 0)
(0.568646 0.0748545 0)
(0.685269 0.041989 0)
(0.752864 0.0239896 0)
(0.794096 0.014045 0)
(0.820526 0.00837929 0)
(0.837346 0.00494382 0)
(0.847385 0.00263703 0)
(0.852176 0.00086007 0)
(0.85239 -0.000753495 0)
(0.848044 -0.00250239 0)
(0.838512 -0.00474742 0)
(0.822295 -0.00807722 0)
(0.796584 -0.0135864 0)
(0.756163 -0.0233479 0)
(0.689392 -0.0412428 0)
(0.573078 -0.0742817 0)
(0.408903 -0.127713 0)
(0.306178 -0.147622 0)
)
;

boundaryField
{
    movingWall
    {
        type            fixedValue;
        value           uniform (1 0 0);
    }
    fixedWalls
    {
        type            noSlip;
    }
    frontAndBack
    {
        type            empty;
    }
}


// ************************************************************************* //
