/*--------------------------------*- C++ -*----------------------------------*\
  =========                 |
  \\      /  F ield         | OpenFOAM: The Open Source CFD Toolbox
   \\    /   O peration     | Website:  https://openfoam.org
    \\  /    A nd           | Version:  6
     \\/     M anipulation  |
\*---------------------------------------------------------------------------*/
FoamFile
{
    version     2.0;
    format      ascii;
    class       volScalarField;
    location    "0.01";
    object      p;
}
// * * * * * * * * * * * * * * * * * * * * * * * * * * * * * * * * * * * * * //

dimensions      [0 2 -2 0 0 0 0];

internalField   nonuniform List<scalar> 
400
(
9.2596e-09
0.000176519
0.00102414
0.00253729
0.00465396
0.00731046
0.010431
0.0139277
0.0177034
0.0216537
0.0256698
0.0296405
0.0334548
0.0370046
0.0401871
0.0429082
0.0450857
0.0466498
0.0475329
0.0477252
-0.000181574
-8.26594e-06
0.000853142
0.00238043
0.00451218
0.00718687
0.0103289
0.0138499
0.0176522
0.0216308
0.0256762
0.0296765
0.0335198
0.0370973
0.0403052
0.0430486
0.0452447
0.0468253
0.0477231
0.0479127
-0.00104437
-0.000877047
1.54724e-05
0.0016
0.00380996
0.00658151
0.00983616
0.0134825
0.0174196
0.0215393
0.0257288
0.0298732
0.0338571
0.0375678
0.0408977
0.0437477
0.0460309
0.0476754
0.048608
0.0487922
-0.00262999
-0.00245773
-0.00150802
0.000180348
0.00253381
0.00548303
0.00894372
0.0128185
0.0170006
0.0213763
0.0258272
0.0302324
0.0344707
0.0384228
0.0419742
0.045018
0.0474598
0.0492202
0.0502173
0.0504086
-0.0049674
-0.0047813
-0.00374473
-0.00190203
0.000663838
0.00387512
0.00763864
0.0118482
0.0163884
0.0211376
0.0259695
0.0307554
0.0353657
0.0396718
0.0435489
0.046879
0.049556
0.0514895
0.0525856
0.0527951
-0.00812488
-0.00791738
-0.00676039
-0.0047061
-0.0018508
0.00171563
0.00588753
0.0105466
0.0155662
0.0208144
0.0261552
0.0314502
0.0365592
0.041342
0.0456601
0.0493802
0.05238
0.0545528
0.0557874
0.0560252
-0.0121986
-0.0119614
-0.0106443
-0.00831152
-0.00507808
-0.00105109
0.00364676
0.00888131
0.0145121
0.0203948
0.0263826
0.0323258
0.0380725
0.0434682
0.0483576
0.0525874
0.056013
0.0585043
0.0599256
0.0602032
-0.0173154
-0.0170381
-0.0155124
-0.0128199
-0.00910325
-0.00449361
0.000863425
0.00681359
0.0131998
0.0198642
0.0266483
0.0333913
0.0399287
0.0460905
0.0517012
0.0565821
0.0605583
0.0634667
0.0651356
0.0654683
-0.0236404
-0.0233092
-0.0215121
-0.0183582
-0.0140301
-0.00869322
-0.00252376
0.00429903
0.011599
0.0192045
0.0269462
0.0346537
0.0421509
0.0492521
0.055759
0.0614614
0.0661442
0.0695971
0.0715944
0.0720032
-0.0313878
-0.0309831
-0.0288298
-0.0250819
-0.0199812
-0.0137423
-0.00658197
0.00129011
0.00967722
0.0183949
0.0272663
0.0361153
0.044758
0.0529948
0.0606037
0.0673371
0.0729263
0.0770939
0.0795323
0.0800483
-0.0408388
-0.0403299
-0.0377004
-0.0331785
-0.027097
-0.0197407
-0.0113797
-0.00225967
0.00740209
0.0174124
0.0275931
0.0377697
0.0477582
0.0573513
0.0663052
0.0743299
0.0810885
0.0862071
0.0892512
0.0899241
-0.0523701
-0.0517059
-0.0484198
-0.0428701
-0.0355312
-0.0267879
-0.0169784
-0.00638873
0.00474656
0.0162334
0.0279034
0.0395961
0.0511404
0.0623331
0.0729171
0.0825597
0.0908405
0.0972494
0.101153
0.102068
-0.0665048
-0.0655911
-0.0613623
-0.0544139
-0.0454418
-0.0349697
-0.023419
-0.0111161
0.00169638
0.0148374
0.0281651
0.0415521
0.0548604
0.0679119
0.0804547
0.0921241
0.102407
0.110608
0.115782
0.117101
-0.0840069
-0.0826527
-0.0770017
-0.0680942
-0.0569693
-0.0443335
-0.0306997
-0.0164238
-0.00173803
0.0132125
0.0283364
0.0435656
0.0588241
0.0739917
0.0888575
0.103057
0.115995
0.12675
0.133894
0.135951
-0.106074
-0.103852
-0.0959285
-0.0841953
-0.070196
-0.0548481
-0.0387419
-0.0222322
-0.00550511
0.011364
0.0283667
0.0455265
0.0628668
0.0803722
0.0979324
0.115254
0.131725
0.146199
0.156565
0.160127
-0.134723
-0.130609
-0.118842
-0.102934
-0.0850701
-0.066339
-0.0473432
-0.0283672
-0.00949127
0.00932702
0.0282007
0.047281
0.0667323
0.0867022
0.107269
0.128341
0.149463
0.169423
0.185286
0.192164
-0.173642
-0.165034
-0.146501
-0.124347
-0.101291
-0.0783989
-0.0561165
-0.0345237
-0.0134986
0.00718047
0.0277885
0.0486354
0.0700621
0.0924365
0.116134
0.141464
0.168474
0.196364
0.221661
0.236176
-0.23165
-0.210506
-0.17954
-0.147971
-0.11802
-0.0901834
-0.0643664
-0.0401924
-0.0171986
0.00508466
0.0271235
0.0493981
0.0724359
0.0968554
0.123419
0.153073
0.186875
0.225513
0.26758
0.303035
-0.335512
-0.270877
-0.21484
-0.170184
-0.132331
-0.0995505
-0.0706109
-0.0443812
-0.0199476
0.00342637
0.0263809
0.0495342
0.0735619
0.0993017
0.127924
0.161214
0.201956
0.254928
0.331335
0.433285
-0.526416
-0.331238
-0.232823
-0.17927
-0.137757
-0.102765
-0.0726196
-0.0457121
-0.0208552
0.00280661
0.0259763
0.0493172
0.0735571
0.0996394
0.129017
0.164338
0.211153
0.282393
0.414272
0.655393
)
;

boundaryField
{
    movingWall
    {
        type            zeroGradient;
    }
    fixedWalls
    {
        type            zeroGradient;
    }
    frontAndBack
    {
        type            empty;
    }
}


// ************************************************************************* //
