/*--------------------------------*- C++ -*----------------------------------*\
  =========                 |
  \\      /  F ield         | OpenFOAM: The Open Source CFD Toolbox
   \\    /   O peration     | Website:  https://openfoam.org
    \\  /    A nd           | Version:  6
     \\/     M anipulation  |
\*---------------------------------------------------------------------------*/
FoamFile
{
    version     2.0;
    format      ascii;
    class       surfaceScalarField;
    location    "0.01";
    object      phi;
}
// * * * * * * * * * * * * * * * * * * * * * * * * * * * * * * * * * * * * * //

dimensions      [0 3 -1 0 0 0 0];

internalField   nonuniform List<scalar> 
760
(
-3.83167e-08
3.83166e-08
-9.32764e-08
5.49597e-08
-1.48058e-07
5.47815e-08
-1.98907e-07
5.08495e-08
-2.44306e-07
4.5399e-08
-2.83102e-07
3.87954e-08
-3.14345e-07
3.12436e-08
-3.37295e-07
2.29494e-08
-3.51414e-07
1.41194e-08
-3.56371e-07
4.95678e-09
-3.52033e-07
-4.33796e-09
-3.3847e-07
-1.35631e-08
-3.15958e-07
-2.25119e-08
-2.84988e-07
-3.09704e-08
-2.46271e-07
-3.8717e-08
-2.00745e-07
-4.55262e-08
-1.49574e-07
-5.11705e-08
-9.43139e-08
-5.526e-08
-3.87603e-08
-5.55537e-08
-3.87602e-08
-5.69766e-08
9.52932e-08
-1.341e-07
1.32083e-07
-2.10681e-07
1.31362e-07
-2.81857e-07
1.22026e-07
-3.45394e-07
1.08935e-07
-3.99643e-07
9.30452e-08
-4.43288e-07
7.48878e-08
-4.75307e-07
5.49682e-08
-4.94971e-07
3.37834e-08
-5.01831e-07
1.18175e-08
-4.95714e-07
-1.04548e-08
-4.76719e-07
-3.25585e-08
-4.45225e-07
-5.40063e-08
-4.01905e-07
-7.42906e-08
-3.47741e-07
-9.28803e-08
-2.8404e-07
-1.09228e-07
-2.12458e-07
-1.22752e-07
-1.35278e-07
-1.32441e-07
-5.74799e-08
-1.33351e-07
-9.62401e-08
-6.19267e-08
1.5722e-07
-1.45702e-07
2.15859e-07
-2.28646e-07
2.14306e-07
-3.05588e-07
1.98967e-07
-3.74166e-07
1.77514e-07
-4.32636e-07
1.51515e-07
-4.79614e-07
1.21866e-07
-5.14046e-07
8.94003e-08
-5.35187e-07
5.49244e-08
-5.42581e-07
1.92117e-08
-5.36049e-07
-1.69866e-08
-5.15685e-07
-5.29224e-08
-4.81866e-07
-8.7826e-08
-4.3527e-07
-1.20886e-07
-3.76908e-07
-1.51243e-07
-3.08144e-07
-1.77991e-07
-2.30741e-07
-2.00155e-07
-1.47113e-07
-2.16068e-07
-6.25618e-08
-2.17903e-07
-1.58802e-07
-6.64908e-08
2.23711e-07
-1.56608e-07
3.05976e-07
-2.45679e-07
3.03378e-07
-3.28103e-07
2.81391e-07
-4.01381e-07
2.50792e-07
-4.63704e-07
2.13838e-07
-5.13672e-07
1.71834e-07
-5.50245e-07
1.25973e-07
-5.72702e-07
7.73813e-08
-5.80606e-07
2.71155e-08
-5.73778e-07
-2.38139e-08
-5.52294e-07
-7.44066e-08
-5.16494e-07
-1.23627e-07
-4.67015e-07
-1.70365e-07
-4.0484e-07
-2.13417e-07
-3.31342e-07
-2.51489e-07
-2.48345e-07
-2.83153e-07
-1.58414e-07
-3.06e-07
-6.73003e-08
-3.09016e-07
-2.26102e-07
-7.28214e-08
2.96532e-07
-1.71508e-07
4.04663e-07
-2.68848e-07
4.00717e-07
-3.58631e-07
3.71175e-07
-4.38157e-07
3.30317e-07
-5.05543e-07
2.81224e-07
-5.59397e-07
2.25688e-07
-5.98728e-07
1.65305e-07
-6.22878e-07
1.0153e-07
-6.3145e-07
3.56878e-08
-6.24275e-07
-3.09886e-08
-6.01394e-07
-9.72876e-08
-5.63078e-07
-1.61943e-07
-5.0988e-07
-2.23563e-07
-4.42709e-07
-2.80588e-07
-3.62915e-07
-3.31283e-07
-2.72389e-07
-3.73679e-07
-1.73915e-07
-4.04473e-07
-7.38988e-08
-4.09033e-07
-3.00001e-07
-8.13731e-08
3.77905e-07
-1.91508e-07
5.14798e-07
-2.99801e-07
5.09009e-07
-3.9923e-07
4.70604e-07
-4.86833e-07
4.1792e-07
-5.60667e-07
3.55059e-07
-6.194e-07
2.84421e-07
-6.62157e-07
2.08062e-07
-6.88398e-07
1.27771e-07
-6.97811e-07
4.51007e-08
-6.90246e-07
-3.85537e-08
-6.65691e-07
-1.21843e-07
-6.24299e-07
-2.03334e-07
-5.66469e-07
-2.81393e-07
-4.92956e-07
-3.54101e-07
-4.05026e-07
-4.19213e-07
-3.04618e-07
-4.74087e-07
-1.94797e-07
-5.14294e-07
-8.28453e-08
-5.20984e-07
-3.82846e-07
-9.25652e-08
4.70471e-07
-2.1757e-07
6.39802e-07
-3.39919e-07
6.31359e-07
-4.51525e-07
5.8221e-07
-5.49121e-07
5.15515e-07
-6.30763e-07
4.36701e-07
-6.95279e-07
3.48937e-07
-7.42026e-07
2.5481e-07
-7.70686e-07
1.56431e-07
-7.81096e-07
5.55104e-08
-7.73146e-07
-4.65036e-08
-7.46744e-07
-1.48245e-07
-7.01852e-07
-2.48226e-07
-6.38597e-07
-3.44648e-07
-5.57453e-07
-4.35245e-07
-4.59473e-07
-5.17194e-07
-3.46572e-07
-5.86988e-07
-2.22135e-07
-6.38731e-07
-9.46131e-08
-6.48506e-07
-4.77459e-07
-1.0701e-07
5.77481e-07
-2.51039e-07
7.83831e-07
-3.91079e-07
7.71398e-07
-5.17649e-07
7.08781e-07
-6.27176e-07
6.25041e-07
-7.17844e-07
5.27369e-07
-7.88836e-07
4.1993e-07
-8.39937e-07
3.05911e-07
-8.71205e-07
1.87699e-07
-8.8273e-07
6.7035e-08
-8.74478e-07
-5.47559e-08
-8.46238e-07
-1.76484e-07
-7.97672e-07
-2.96792e-07
-7.28464e-07
-4.13857e-07
-6.3858e-07
-5.25128e-07
-5.2864e-07
-6.27134e-07
-4.00367e-07
-7.15261e-07
-2.57461e-07
-7.81637e-07
-1.09901e-07
-7.96066e-07
-5.8736e-07
-1.25634e-07
7.03114e-07
-2.93904e-07
9.52102e-07
-4.55968e-07
9.33462e-07
-6.0055e-07
8.53363e-07
-7.23844e-07
7.48335e-07
-8.2444e-07
6.27965e-07
-9.02209e-07
4.97699e-07
-9.57668e-07
3.6137e-07
-9.91495e-07
2.21526e-07
-1.00418e-06
7.97209e-08
-9.95823e-07
-6.31141e-08
-9.66045e-07
-2.06261e-07
-9.14054e-07
-3.48783e-07
-8.38833e-07
-4.89078e-07
-7.39499e-07
-6.24462e-07
-6.15842e-07
-7.50791e-07
-4.69061e-07
-8.62043e-07
-3.03053e-07
-9.47645e-07
-1.29775e-07
-9.69343e-07
-7.17135e-07
-1.49876e-07
8.5299e-07
-3.49175e-07
1.1514e-06
-5.38509e-07
1.1228e-06
-7.0434e-07
1.01919e-06
-8.42894e-07
8.8689e-07
-9.53691e-07
7.38762e-07
-1.03784e-06
5.81851e-07
-1.09707e-06
4.206e-07
-1.13302e-06
2.57475e-07
-1.14679e-06
9.34907e-08
-1.13869e-06
-7.12196e-08
-1.10811e-06
-2.36838e-07
-1.05362e-06
-4.03277e-07
-9.7313e-07
-5.69566e-07
-8.64395e-07
-7.33198e-07
-7.25726e-07
-8.8946e-07
-5.57149e-07
-1.03062e-06
-3.62399e-07
-1.1424e-06
-1.55919e-07
-1.17582e-06
-8.73055e-07
-1.82057e-07
1.03505e-06
-4.21537e-07
1.39088e-06
-6.44541e-07
1.3458e-06
-8.34813e-07
1.20947e-06
-9.89301e-07
1.04138e-06
-1.10942e-06
8.5888e-07
-1.19841e-06
6.70845e-07
-1.2599e-06
4.82084e-07
-1.29693e-06
2.94513e-07
-1.31151e-06
1.08065e-07
-1.30423e-06
-7.84942e-08
-1.27424e-06
-2.66831e-07
-1.2192e-06
-4.58321e-07
-1.1355e-06
-6.53259e-07
-1.01879e-06
-8.49912e-07
-8.6486e-07
-1.04339e-06
-6.71379e-07
-1.2241e-06
-4.41001e-07
-1.37277e-06
-1.9109e-07
-1.42573e-06
-1.06414e-06
-2.26103e-07
1.26115e-06
-5.18556e-07
1.68333e-06
-7.82947e-07
1.61019e-06
-1.00021e-06
1.42673e-06
-1.1696e-06
1.21077e-06
-1.29616e-06
9.85432e-07
-1.38662e-06
7.61313e-07
-1.44744e-06
5.42902e-07
-1.48367e-06
3.30736e-07
-1.49846e-06
1.22858e-07
-1.49287e-06
-8.40825e-08
-1.46573e-06
-2.93974e-07
-1.41358e-06
-5.10464e-07
-1.3308e-06
-7.36046e-07
-1.2099e-06
-9.70815e-07
-1.0426e-06
-1.21068e-06
-8.22096e-07
-1.44461e-06
-5.47864e-07
-1.64701e-06
-2.40053e-07
-1.73355e-06
-1.3042e-06
-2.89033e-07
1.55018e-06
-6.52898e-07
2.0472e-06
-9.67526e-07
1.92482e-06
-1.21232e-06
1.67152e-06
-1.39227e-06
1.39072e-06
-1.51903e-06
1.11219e-06
-1.60483e-06
8.47117e-07
-1.66008e-06
5.98149e-07
-1.69239e-06
3.63043e-07
-1.70637e-06
1.36844e-07
-1.70364e-06
-8.68099e-08
-1.68276e-06
-3.14863e-07
-1.63903e-06
-5.5419e-07
-1.56431e-06
-8.10759e-07
-1.44692e-06
-1.08821e-06
-1.27228e-06
-1.38532e-06
-1.02548e-06
-1.69142e-06
-6.98315e-07
-1.97417e-06
-3.11576e-07
-2.12028e-06
-1.61577e-06
-3.84229e-07
1.93441e-06
-8.46619e-07
2.50959e-06
-1.22004e-06
2.29824e-06
-1.48783e-06
1.93931e-06
-1.66788e-06
1.57078e-06
-1.78326e-06
1.22757e-06
-1.85429e-06
9.18145e-07
-1.89643e-06
6.40284e-07
-1.92021e-06
3.86825e-07
-1.93179e-06
1.48423e-07
-1.9334e-06
-8.51987e-08
-1.92347e-06
-3.24789e-07
-1.89627e-06
-5.81392e-07
-1.84106e-06
-8.65969e-07
-1.74103e-06
-1.18824e-06
-1.57263e-06
-1.55372e-06
-1.30714e-06
-1.95691e-06
-9.19505e-07
-2.3618e-06
-4.22999e-07
-2.61679e-06
-2.03877e-06
-5.3904e-07
2.47345e-06
-1.1395e-06
3.11005e-06
-1.57485e-06
2.73358e-06
-1.84957e-06
2.21404e-06
-2.00837e-06
1.72957e-06
-2.09271e-06
1.31191e-06
-2.13357e-06
9.59007e-07
-2.15193e-06
6.58646e-07
-2.16091e-06
3.95805e-07
-2.16781e-06
1.55321e-07
-2.1754e-06
-7.76055e-08
-2.18235e-06
-3.17844e-07
-2.18259e-06
-5.81146e-07
-2.1637e-06
-8.84868e-07
-2.10393e-06
-1.248e-06
-1.96859e-06
-1.68906e-06
-1.70736e-06
-2.21815e-06
-1.26097e-06
-2.80818e-06
-6.10981e-07
-3.26678e-06
-2.64975e-06
-8.11867e-07
3.28532e-06
-1.60348e-06
3.90166e-06
-2.08306e-06
3.21316e-06
-2.32387e-06
2.45485e-06
-2.42158e-06
1.82728e-06
-2.44378e-06
1.33411e-06
-2.43285e-06
9.48083e-07
-2.41368e-06
6.39468e-07
-2.40011e-06
3.82235e-07
-2.39934e-06
1.54554e-07
-2.41431e-06
-6.2634e-08
-2.44449e-06
-2.87664e-07
-2.48516e-06
-5.40471e-07
-2.52484e-06
-8.45189e-07
-2.53997e-06
-1.23288e-06
-2.48577e-06
-1.74326e-06
-2.28321e-06
-2.4207e-06
-1.80987e-06
-3.28152e-06
-9.52806e-07
-4.12385e-06
-3.60256e-06
-1.32347e-06
4.60879e-06
-2.3489e-06
4.9271e-06
-2.78924e-06
3.65349e-06
-2.90276e-06
2.56837e-06
-2.86905e-06
1.79357e-06
-2.7831e-06
1.24816e-06
-2.69253e-06
8.57513e-07
-2.61982e-06
5.66759e-07
-2.57507e-06
3.37483e-07
-2.56278e-06
1.42267e-07
-2.58514e-06
-4.02782e-08
-2.64313e-06
-2.29674e-07
-2.736e-06
-4.47593e-07
-2.85845e-06
-7.22739e-07
-2.99345e-06
-1.09788e-06
-3.0965e-06
-1.64021e-06
-3.06362e-06
-2.45358e-06
-2.67494e-06
-3.6702e-06
-1.58544e-06
-5.21335e-06
-5.188e-06
-2.25369e-06
6.86248e-06
-3.33932e-06
6.01273e-06
-3.43935e-06
3.75353e-06
-3.21495e-06
2.34396e-06
-2.92995e-06
1.50857e-06
-2.67268e-06
9.90892e-07
-2.4704e-06
6.5523e-07
-2.32786e-06
4.24218e-07
-2.24299e-06
2.52617e-07
-2.2134e-06
1.1267e-07
-2.23877e-06
-1.48997e-08
-2.32185e-06
-1.46599e-07
-2.46846e-06
-3.00982e-07
-2.68633e-06
-5.04869e-07
-2.97976e-06
-8.04445e-07
-3.33237e-06
-1.2876e-06
-3.65802e-06
-2.12793e-06
-3.6636e-06
-3.66463e-06
-2.5794e-06
-6.29755e-06
-7.7674e-06
-2.88401e-06
9.74648e-06
-2.45032e-06
5.57905e-06
-1.2914e-06
2.5946e-06
-3.49307e-07
1.40188e-06
3.2925e-07
8.30017e-07
8.0747e-07
5.12671e-07
1.13654e-06
3.26156e-07
1.35323e-06
2.0753e-07
1.48156e-06
1.24284e-07
1.53504e-06
5.91907e-08
1.51857e-06
1.57685e-09
1.42905e-06
-5.70874e-08
1.25447e-06
-1.26395e-07
9.71037e-07
-2.21438e-07
5.3896e-07
-3.72368e-07
-9.90776e-08
-6.4956e-07
-9.92256e-07
-1.23475e-06
-2.04988e-06
-2.60701e-06
-2.46028e-06
-5.88715e-06
-1.02277e-05
9.74648e-06
1.53255e-05
1.79201e-05
1.9322e-05
2.0152e-05
2.06647e-05
2.09909e-05
2.11984e-05
2.13227e-05
2.13819e-05
2.13834e-05
2.13263e-05
2.12e-05
2.09785e-05
2.06061e-05
1.99566e-05
1.87218e-05
1.61148e-05
1.02277e-05
)
;

boundaryField
{
    movingWall
    {
        type            calculated;
        value           uniform 0;
    }
    fixedWalls
    {
        type            calculated;
        value           uniform 0;
    }
    frontAndBack
    {
        type            empty;
        value           nonuniform 0();
    }
}


// ************************************************************************* //
