/*--------------------------------*- C++ -*----------------------------------*\
  =========                 |
  \\      /  F ield         | OpenFOAM: The Open Source CFD Toolbox
   \\    /   O peration     | Website:  https://openfoam.org
    \\  /    A nd           | Version:  6
     \\/     M anipulation  |
\*---------------------------------------------------------------------------*/
FoamFile
{
    version     2.0;
    format      ascii;
    class       volVectorField;
    location    "0.01";
    object      U;
}
// * * * * * * * * * * * * * * * * * * * * * * * * * * * * * * * * * * * * * //

dimensions      [0 1 -1 0 0 0 0];

internalField   nonuniform List<vector> 
400
(
(-0.00037825 0.000373365 0)
(-0.00130762 0.000532887 0)
(-0.00241515 0.000531391 0)
(-0.00347948 0.000493469 0)
(-0.00444519 0.000440714 0)
(-0.00528933 0.000376726 0)
(-0.0059915 0.000303489 0)
(-0.00653476 0.000223005 0)
(-0.00690634 0.000137285 0)
(-0.00709755 4.83107e-05 0)
(-0.00710377 -4.19636e-05 0)
(-0.00692436 -0.000131565 0)
(-0.00656277 -0.000218472 0)
(-0.00602666 -0.000300597 0)
(-0.00532804 -0.000375787 0)
(-0.00448346 -0.000441863 0)
(-0.0035133 -0.000496659 0)
(-0.00244036 -0.000536473 0)
(-0.00132215 -0.000539864 0)
(-0.000381563 -0.000378838 0)
(-0.000559113 0.00131877 0)
(-0.00189668 0.00184205 0)
(-0.0034522 0.00183309 0)
(-0.00494264 0.00170267 0)
(-0.00629484 0.00152029 0)
(-0.00747634 0.00129893 0)
(-0.00845823 0.0010458 0)
(-0.00921706 0.000767904 0)
(-0.00973534 0.00047218 0)
(-0.0100013 0.000165425 0)
(-0.0100088 -0.000145675 0)
(-0.00975702 -0.000454411 0)
(-0.00925075 -0.00075391 0)
(-0.00850045 -0.00103703 0)
(-0.00752269 -0.00129636 0)
(-0.00634043 -0.0015243 0)
(-0.00498251 -0.00171293 0)
(-0.00348168 -0.00184858 0)
(-0.00191286 -0.001861 0)
(-0.000562938 -0.00133278 0)
(-0.000606296 0.00251108 0)
(-0.00206022 0.00345877 0)
(-0.00374898 0.00343614 0)
(-0.00536212 0.00319126 0)
(-0.00682281 0.00284826 0)
(-0.00809723 0.00243211 0)
(-0.00915487 0.00195695 0)
(-0.0099713 0.00143607 0)
(-0.0105285 0.000882463 0)
(-0.0108147 0.000308683 0)
(-0.0108233 -0.000273013 0)
(-0.0105537 -0.000850379 0)
(-0.0100104 -0.00141084 0)
(-0.00920402 -0.00194123 0)
(-0.00815128 -0.00242769 0)
(-0.00687609 -0.00285582 0)
(-0.00540885 -0.00321017 0)
(-0.003784 -0.00346425 0)
(-0.00208048 -0.00349158 0)
(-0.000612158 -0.00253647 0)
(-0.000650493 0.00379738 0)
(-0.00221357 0.00519922 0)
(-0.00402923 0.0051577 0)
(-0.00575966 0.00478643 0)
(-0.00732247 0.00426845 0)
(-0.00868252 0.00364167 0)
(-0.0098086 0.00292791 0)
(-0.0106763 0.00214733 0)
(-0.011268 0.00131922 0)
(-0.0115724 0.000461925 0)
(-0.0115832 -0.000406885 0)
(-0.0112995 -0.00126965 0)
(-0.0107253 -0.00210824 0)
(-0.00987029 -0.00290343 0)
(-0.00875061 -0.0036346 0)
(-0.00738986 -0.00427989 0)
(-0.00581903 -0.00481544 0)
(-0.00407401 -0.00520088 0)
(-0.00223974 -0.00524926 0)
(-0.000658398 -0.00383651 0)
(-0.000712367 0.0051866 0)
(-0.00242449 0.0070809 0)
(-0.00441115 0.00701564 0)
(-0.00629943 0.00650319 0)
(-0.0079987 0.0057922 0)
(-0.00947191 0.0049355 0)
(-0.0106874 0.00396379 0)
(-0.0116213 0.00290483 0)
(-0.0122575 0.0017844 0)
(-0.0125853 0.000626381 0)
(-0.0125994 -0.000546662 0)
(-0.0122984 -0.00171246 0)
(-0.0116853 -0.00284788 0)
(-0.0107681 -0.00392783 0)
(-0.0095614 -0.00492471 0)
(-0.00808767 -0.00580835 0)
(-0.00637819 -0.00654509 0)
(-0.00447085 -0.00707839 0)
(-0.00245946 -0.00715386 0)
(-0.000723021 -0.00524443 0)
(-0.000796218 0.00672331 0)
(-0.00270847 0.00916103 0)
(-0.0049226 0.0090643 0)
(-0.00701891 0.00838895 0)
(-0.00889585 0.00745853 0)
(-0.0105143 0.0063441 0)
(-0.0118428 0.00508718 0)
(-0.0128594 0.00372414 0)
(-0.0135504 0.00228742 0)
(-0.0139075 0.000805911 0)
(-0.0139261 -0.000693871 0)
(-0.0136046 -0.00218607 0)
(-0.0129444 -0.00364346 0)
(-0.0119505 -0.00503565 0)
(-0.0106344 -0.00632785 0)
(-0.00901597 -0.00748045 0)
(-0.00712587 -0.00844773 0)
(-0.0050041 -0.00915325 0)
(-0.00275631 -0.009265 0)
(-0.0008108 -0.00680638 0)
(-0.000906163 0.00845651 0)
(-0.00307939 0.0115029 0)
(-0.00558738 0.011362 0)
(-0.00794863 0.0104924 0)
(-0.0100477 0.00930553 0)
(-0.0118438 0.00789556 0)
(-0.0133076 0.00631767 0)
(-0.0144214 0.00461807 0)
(-0.015176 0.00283585 0)
(-0.0155669 0.0010039 0)
(-0.0155917 -0.000848983 0)
(-0.0152483 -0.00269524 0)
(-0.0145351 -0.0045053 0)
(-0.0134528 -0.00624455 0)
(-0.0120067 -0.00787104 0)
(-0.0102118 -0.00933433 0)
(-0.00809591 -0.0105735 0)
(-0.00570033 -0.0114865 0)
(-0.00314591 -0.0116495 0)
(-0.000926435 -0.00857431 0)
(-0.00104834 0.0104445 0)
(-0.0035571 0.0141816 0)
(-0.00643831 0.0139757 0)
(-0.00912937 0.0128667 0)
(-0.0114976 0.0113719 0)
(-0.0135026 0.00961598 0)
(-0.0151203 0.00767157 0)
(-0.0163413 0.00559621 0)
(-0.0171646 0.00343509 0)
(-0.0175923 0.00122318 0)
(-0.0176252 -0.00101119 0)
(-0.0172609 -0.00324184 0)
(-0.0164937 -0.00543972 0)
(-0.0153163 -0.00756812 0)
(-0.0137246 -0.00957862 0)
(-0.0117236 -0.0114084 0)
(-0.00933412 -0.0129771 0)
(-0.0065967 -0.0141487 0)
(-0.00365085 -0.0143876 0)
(-0.00107692 -0.010611 0)
(-0.00123211 0.0127608 0)
(-0.00417125 0.0172899 0)
(-0.00752319 0.0169845 0)
(-0.0106186 0.0155702 0)
(-0.0133043 0.0136959 0)
(-0.0155447 0.0115272 0)
(-0.0173275 0.00915947 0)
(-0.0186579 0.00666274 0)
(-0.0195491 0.00408685 0)
(-0.0200132 0.00146551 0)
(-0.0200567 -0.00117783 0)
(-0.0196768 -0.00382314 0)
(-0.0188614 -0.00644653 0)
(-0.0175917 -0.00901296 0)
(-0.0158476 -0.0114695 0)
(-0.0136167 -0.01374 0)
(-0.0109054 -0.015719 0)
(-0.00774777 -0.0172244 0)
(-0.00430524 -0.0175796 0)
(-0.00127304 -0.0129965 0)
(-0.00147214 0.0155021 0)
(-0.00496735 0.0209462 0)
(-0.00891311 0.0204838 0)
(-0.0124983 0.0186662 0)
(-0.0155477 0.0163118 0)
(-0.0180396 0.0136422 0)
(-0.0199849 0.0107814 0)
(-0.021414 0.0078126 0)
(-0.0223619 0.00478672 0)
(-0.022857 0.00173073 0)
(-0.0229139 -0.00134348 0)
(-0.0225296 -0.00442921 0)
(-0.0216835 -0.0075148 0)
(-0.0203393 -0.0105733 0)
(-0.0184523 -0.0135515 0)
(-0.0159808 -0.0163606 0)
(-0.0129032 -0.0188636 0)
(-0.00923542 -0.0208155 0)
(-0.00516203 -0.0213552 0)
(-0.00153188 -0.0158378 0)
(-0.00179237 0.0188017 0)
(-0.00601763 0.0253079 0)
(-0.0107164 0.0245896 0)
(-0.0148875 0.0222202 0)
(-0.018337 0.019243 0)
(-0.0210758 0.0159566 0)
(-0.0231572 0.0125196 0)
(-0.0246527 0.00902578 0)
(-0.025631 0.00552064 0)
(-0.0261435 0.00201546 0)
(-0.0262167 -0.001499 0)
(-0.0258481 -0.00503945 0)
(-0.0250055 -0.0086169 0)
(-0.0236285 -0.0122226 0)
(-0.0216357 -0.015812 0)
(-0.0189383 -0.0192876 0)
(-0.0154635 -0.0224763 0)
(-0.0111858 -0.0250466 0)
(-0.00630647 -0.0258887 0)
(-0.00188179 -0.0192847 0)
(-0.00223378 0.0228533 0)
(-0.00744138 0.0305908 0)
(-0.0131031 0.0294433 0)
(-0.0179615 0.0262921 0)
(-0.0218218 0.0224893 0)
(-0.024764 0.0184356 0)
(-0.0269159 0.014327 0)
(-0.028413 0.0102593 0)
(-0.0293723 0.0062599 0)
(-0.0298767 0.00231124 0)
(-0.0299689 -0.00163032 0)
(-0.0296476 -0.00561821 0)
(-0.0288666 -0.00970027 0)
(-0.0275345 -0.0139015 0)
(-0.0255182 -0.0182021 0)
(-0.0226566 -0.0225084 0)
(-0.0187879 -0.0266123 0)
(-0.0137988 -0.0300689 0)
(-0.00788191 -0.0314222 0)
(-0.00237237 -0.0235596 0)
(-0.0028709 0.0279567 0)
(-0.00944494 0.0371021 0)
(-0.0163476 0.0352126 0)
(-0.021982 0.0309185 0)
(-0.0262061 0.0260026 0)
(-0.0292392 0.0209925 0)
(-0.0313338 0.0161114 0)
(-0.0327199 0.0114364 0)
(-0.0335791 0.0069552 0)
(-0.0340338 0.00260218 0)
(-0.0341462 -0.00171732 0)
(-0.0339181 -0.00610948 0)
(-0.0332888 -0.0106769 0)
(-0.0321303 -0.0155004 0)
(-0.0302436 -0.0206118 0)
(-0.0273626 -0.0259506 0)
(-0.0231778 -0.0312923 0)
(-0.0174011 -0.0360576 0)
(-0.010142 -0.0383036 0)
(-0.00309647 -0.0290149 0)
(-0.00384873 0.0346083 0)
(-0.0124039 0.0452911 0)
(-0.0209056 0.0420793 0)
(-0.0273411 0.0360715 0)
(-0.0317627 0.029645 0)
(-0.0346563 0.0234555 0)
(-0.0364718 0.0177134 0)
(-0.0375688 0.012434 0)
(-0.038206 0.00752996 0)
(-0.0385487 0.00286224 0)
(-0.03868 -0.00173343 0)
(-0.0386066 -0.00643245 0)
(-0.0382569 -0.0114118 0)
(-0.0374688 -0.0168366 0)
(-0.035969 -0.0228326 0)
(-0.0333539 -0.0294297 0)
(-0.0290841 -0.0364477 0)
(-0.0225411 -0.0431892 0)
(-0.0135614 -0.0470432 0)
(-0.00424178 -0.0362515 0)
(-0.00546988 0.0436855 0)
(-0.0170384 0.0558179 0)
(-0.027549 0.0501844 0)
(-0.0346178 0.0415709 0)
(-0.0388338 0.0331149 0)
(-0.0411649 0.0255202 0)
(-0.0423474 0.0188811 0)
(-0.042895 0.0130706 0)
(-0.0431421 0.0078751 0)
(-0.0432882 0.00305267 0)
(-0.0434317 -0.00164692 0)
(-0.043587 -0.00648015 0)
(-0.0436833 -0.0117145 0)
(-0.0435411 -0.0176302 0)
(-0.0428277 -0.0245054 0)
(-0.0409881 -0.0325601 0)
(-0.0371633 -0.0418031 0)
(-0.0301512 -0.0515517 0)
(-0.019073 -0.0583708 0)
(-0.00621336 -0.0463464 0)
(-0.00839207 0.0568763 0)
(-0.0247667 0.0696207 0)
(-0.0375567 0.0594641 0)
(-0.0445812 0.046909 0)
(-0.0477407 0.0358301 0)
(-0.0487902 0.0266893 0)
(-0.0488153 0.0192459 0)
(-0.0484651 0.0131007 0)
(-0.0481114 0.00784929 0)
(-0.0479558 0.00312104 0)
(-0.0480954 -0.00142559 0)
(-0.0485542 -0.00612644 0)
(-0.049284 -0.0113418 0)
(-0.0501327 -0.0174879 0)
(-0.0507684 -0.0250594 0)
(-0.0505383 -0.0346154 0)
(-0.048228 -0.0466354 0)
(-0.0417191 -0.0608663 0)
(-0.028486 -0.0732071 0)
(-0.00987395 -0.0613721 0)
(-0.0139786 0.0781627 0)
(-0.0381782 0.0879653 0)
(-0.0525209 0.0691526 0)
(-0.057537 0.0508531 0)
(-0.0579625 0.0367144 0)
(-0.0565804 0.0261863 0)
(-0.0547295 0.018301 0)
(-0.0530583 0.012217 0)
(-0.0518671 0.00728289 0)
(-0.0512894 0.00299739 0)
(-0.0513869 -0.00105265 0)
(-0.0521907 -0.00525441 0)
(-0.0537077 -0.0100333 0)
(-0.0558894 -0.0159282 0)
(-0.0585415 -0.0236851 0)
(-0.0611114 -0.0343644 0)
(-0.0622117 -0.0493676 0)
(-0.0586272 -0.0698947 0)
(-0.0446025 -0.0928121 0)
(-0.0166366 -0.0867957 0)
(-0.0238739 0.117157 0)
(-0.0592408 0.110944 0)
(-0.0693308 0.0755365 0)
(-0.0669347 0.0501974 0)
(-0.0614309 0.0336934 0)
(-0.0558891 0.0227919 0)
(-0.0512677 0.0153643 0)
(-0.0478234 0.0100456 0)
(-0.0455587 0.00597106 0)
(-0.0444196 0.00257132 0)
(-0.0443759 -0.000573007 0)
(-0.0454512 -0.00383385 0)
(-0.0477329 -0.0076282 0)
(-0.051365 -0.0125348 0)
(-0.0564955 -0.0194831 0)
(-0.0630802 -0.0300874 0)
(-0.0703004 -0.0471964 0)
(-0.0749064 -0.0755326 0)
(-0.066463 -0.118435 0)
(-0.0250655 -0.135333 0)
(-0.0231644 0.174692 0)
(-0.0574107 0.123494 0)
(-0.0380012 0.0666056 0)
(-0.0155383 0.038786 0)
(0.000516188 0.0240153 0)
(0.0118523 0.0153454 0)
(0.0197893 0.00997013 0)
(0.0251611 0.00639928 0)
(0.0285587 0.00381361 0)
(0.0303495 0.00174309 0)
(0.0307127 -0.000122877 0)
(0.0296654 -0.00204365 0)
(0.0270583 -0.00431358 0)
(0.0225369 -0.00737948 0)
(0.0154679 -0.0120749 0)
(0.00487395 -0.0201729 0)
(-0.0106727 -0.0357511 0)
(-0.0326869 -0.0681928 0)
(-0.0487957 -0.132636 0)
(0.000218886 -0.189386 0)
(0.238964 0.106306 0)
(0.262778 0.0679976 0)
(0.330229 0.032804 0)
(0.374046 0.0169589 0)
(0.396131 0.00962576 0)
(0.408834 0.00578735 0)
(0.416925 0.00362129 0)
(0.422135 0.00229421 0)
(0.425383 0.0013957 0)
(0.42718 0.00071642 0)
(0.427772 0.00013436 0)
(0.427217 -0.000440902 0)
(0.425398 -0.0011042 0)
(0.421957 -0.00199908 0)
(0.416095 -0.00340994 0)
(0.40606 -0.00600698 0)
(0.387587 -0.0115676 0)
(0.348004 -0.0251497 0)
(0.27688 -0.0599581 0)
(0.258387 -0.102541 0)
)
;

boundaryField
{
    movingWall
    {
        type            fixedValue;
        value           uniform (1 0 0);
    }
    fixedWalls
    {
        type            noSlip;
    }
    frontAndBack
    {
        type            empty;
    }
}


// ************************************************************************* //
