/*--------------------------------*- C++ -*----------------------------------*\
  =========                 |
  \\      /  F ield         | OpenFOAM: The Open Source CFD Toolbox
   \\    /   O peration     | Website:  https://openfoam.org
    \\  /    A nd           | Version:  6
     \\/     M anipulation  |
\*---------------------------------------------------------------------------*/
FoamFile
{
    version     2.0;
    format      ascii;
    class       volScalarField;
    location    "0.08";
    object      p;
}
// * * * * * * * * * * * * * * * * * * * * * * * * * * * * * * * * * * * * * //

dimensions      [0 2 -2 0 0 0 0];

internalField   nonuniform List<scalar> 
400
(
4.2504e-08
-0.000352247
-0.000564456
-0.000487322
-0.000101896
0.000578044
0.00152506
0.00270423
0.00407473
0.00558855
0.00718888
0.00880949
0.0103753
0.0118046
0.0130126
0.0139191
0.014461
0.0146097
0.014397
0.0140121
0.000350945
-1.24299e-05
-0.00015839
-3.51009e-05
0.000347759
0.000986991
0.00186779
0.0029638
0.00423987
0.00565207
0.00714697
0.00866182
0.0101256
0.0114619
0.0125933
0.0134501
0.0139835
0.0141765
0.0140307
0.013633
0.000576569
0.00010737
-5.5901e-05
7.35937e-05
0.000450527
0.00107042
0.00192278
0.00298552
0.00422741
0.00560767
0.00707525
0.00856887
0.0100182
0.0113466
0.0124759
0.013335
0.0138747
0.0140739
0.0139
0.0133817
0.000517545
-6.59036e-05
-0.000274915
-0.000156036
0.000218244
0.000839148
0.00169691
0.00277136
0.00403374
0.00544542
0.00695646
0.00850514
0.0100187
0.0114155
0.01261
0.0135215
0.0140911
0.0142879
0.014054
0.0133994
0.000122896
-0.000560923
-0.000815382
-0.000705756
-0.00032424
0.000316939
0.00120838
0.00233141
0.00365931
0.00515512
0.00676932
0.00843847
0.010085
0.0116188
0.0129414
0.0139561
0.0145885
0.0147945
0.0144984
0.0137106
-0.00064058
-0.00142326
-0.0017217
-0.00161486
-0.00121241
-0.000529607
0.000424637
0.00163325
0.00307175
0.00470503
0.00648396
0.00834281
0.0101976
0.011946
0.0134713
0.0146532
0.0153935
0.0156295
0.0152674
0.0143282
-0.00180812
-0.00270222
-0.00304632
-0.0029343
-0.00249571
-0.00174941
-0.00070366
0.000626604
0.00221997
0.00404421
0.00605163
0.00817481
0.0103228
0.0123785
0.0142006
0.0156349
0.0165472
0.016845
0.0164074
0.0152714
-0.00342751
-0.00445677
-0.00485116
-0.00472539
-0.00423531
-0.00340481
-0.00224136
-0.000756783
0.00103213
0.00309815
0.00539751
0.00786367
0.0104003
0.0128746
0.0151142
0.0169187
0.0180988
0.0185107
0.0179842
0.0165733
-0.0055664
-0.00676478
-0.00721638
-0.0070673
-0.00651028
-0.00557684
-0.00427341
-0.00260742
-0.000588817
0.00176335
0.00441361
0.00730158
0.0103309
0.0133559
0.0161697
0.0185101
0.0201057
0.020724
0.0200981
0.0182876
-0.00831846
-0.00973097
-0.010247
-0.0100615
-0.00942047
-0.00836691
-0.00690599
-0.00503925
-0.00276722
-9.67783e-05
0.00295103
0.00633085
0.00995737
0.0136825
0.0172689
0.0203797
0.0226247
0.0236197
0.0229063
0.0205028
-0.0118129
-0.0134974
-0.0140804
-0.0138358
-0.0130881
-0.0118967
-0.0102651
-0.00818752
-0.00565292
-0.00265216
0.000815213
0.00473111
0.00904007
0.0136157
0.0182108
0.0224157
0.0256819
0.0273749
0.0266612
0.0233837
-0.0162334
-0.0182611
-0.0188972
-0.018549
-0.0176579
-0.016305
-0.0144905
-0.0122001
-0.00941067
-0.00609556
-0.00222725
0.0022168
0.0072371
0.0127714
0.0186173
0.0243342
0.0292005
0.0321931
0.0317721
0.0272811
-0.0218577
-0.0243044
-0.0249355
-0.0243933
-0.0232927
-0.0217376
-0.0197192
-0.0172144
-0.0141907
-0.0106076
-0.00641115
-0.00153021
0.0041187
0.0105972
0.0178508
0.0255409
0.0328546
0.0382367
0.0388915
0.0330001
-0.0291425
-0.0320473
-0.0325068
-0.0315884
-0.0301552
-0.0283183
-0.0260461
-0.0233057
-0.0200628
-0.0162742
-0.0118727
-0.00674541
-0.000714517
0.00646312
0.0150287
0.0250192
0.0358488
0.0454356
0.0489787
0.0423373
-0.0389087
-0.0421357
-0.0419922
-0.0403367
-0.0383443
-0.0360708
-0.0334303
-0.0303776
-0.0268867
-0.0229312
-0.0184553
-0.0133337
-0.00731614
3.88685e-05
0.00940405
0.0215786
0.0368711
0.0531722
0.063163
0.0587678
-0.0527421
-0.0555656
-0.0537601
-0.0506723
-0.0477182
-0.0447243
-0.0414918
-0.0379553
-0.0341042
-0.0299432
-0.025451
-0.0205248
-0.0148882
-0.00794127
0.00145876
0.0151742
0.0352296
0.0607566
0.0827458
0.0878404
-0.0738993
-0.0737863
-0.0679063
-0.0621259
-0.0575168
-0.0533311
-0.0491668
-0.0449055
-0.04053
-0.0360572
-0.0314858
-0.0267268
-0.0214818
-0.0150123
-0.00573857
0.00927945
0.0341886
0.0709621
0.111976
0.138915
-0.110278
-0.0983013
-0.0832433
-0.0727346
-0.0654547
-0.0595553
-0.0542536
-0.0492368
-0.0443739
-0.0396169
-0.0349163
-0.0301209
-0.0248122
-0.017994
-0.0075437
0.0105405
0.0424668
0.0942966
0.165092
0.234911
-0.185429
-0.127602
-0.0915507
-0.0746488
-0.0651061
-0.0583059
-0.0528617
-0.0480733
-0.0435476
-0.0391124
-0.0346453
-0.0298947
-0.0242518
-0.0163516
-0.00335883
0.0201106
0.0630893
0.138108
0.259874
0.419382
-0.345463
-0.150031
-0.074101
-0.055827
-0.0494546
-0.0454322
-0.0426147
-0.0401852
-0.0375715
-0.0345902
-0.0311708
-0.0270845
-0.0216786
-0.0134523
0.00074147
0.0271768
0.0782527
0.177543
0.365946
0.677642
)
;

boundaryField
{
    movingWall
    {
        type            zeroGradient;
    }
    fixedWalls
    {
        type            zeroGradient;
    }
    frontAndBack
    {
        type            empty;
    }
}


// ************************************************************************* //
