/*--------------------------------*- C++ -*----------------------------------*\
  =========                 |
  \\      /  F ield         | OpenFOAM: The Open Source CFD Toolbox
   \\    /   O peration     | Website:  https://openfoam.org
    \\  /    A nd           | Version:  6
     \\/     M anipulation  |
\*---------------------------------------------------------------------------*/
FoamFile
{
    version     2.0;
    format      ascii;
    class       volScalarField;
    location    "0.1";
    object      p;
}
// * * * * * * * * * * * * * * * * * * * * * * * * * * * * * * * * * * * * * //

dimensions      [0 2 -2 0 0 0 0];

internalField   nonuniform List<scalar> 
400
(
1.49334e-05
-0.0347973
-0.0781533
-0.11161
-0.124142
-0.110802
-0.0712182
-0.00831678
0.0727264
0.165275
0.261851
0.354667
0.436147
0.499489
0.539354
0.552716
0.539961
0.506174
0.462594
0.427786
0.0345217
-0.00124705
-0.0352767
-0.0583573
-0.0650439
-0.0518589
-0.0183552
0.0333545
0.0993425
0.174444
0.25275
0.32808
0.394441
0.446531
0.480284
0.493499
0.486632
0.463267
0.429043
0.393313
0.0803846
0.0308284
-0.00600128
-0.0273044
-0.0327477
-0.0204234
0.0096341
0.0553746
0.113353
0.179144
0.247705
0.313753
0.372156
0.41834
0.448704
0.461092
0.455463
0.433832
0.396751
0.347225
0.122666
0.054095
0.00828255
-0.0160196
-0.0226573
-0.0111119
0.0178629
0.06184
0.117349
0.180182
0.24564
0.308821
0.364913
0.40952
0.438967
0.450676
0.443857
0.419141
0.372944
0.304316
0.151626
0.0629347
0.00635301
-0.0222363
-0.0302553
-0.0184215
0.0117158
0.0571543
0.114144
0.17842
0.245351
0.310125
0.367966
0.414361
0.445279
0.457491
0.44936
0.420268
0.363105
0.274154
0.160294
0.0510365
-0.0167899
-0.0495415
-0.0579132
-0.0438029
-0.00963714
0.0408501
0.103441
0.173618
0.246616
0.317517
0.381368
0.433325
0.468779
0.48366
0.475366
0.442065
0.373394
0.263517
0.142623
0.012136
-0.0667601
-0.102485
-0.109082
-0.0897372
-0.047902
0.011794
0.0845126
0.165349
0.249284
0.33117
0.405747
0.467678
0.511593
0.532369
0.526243
0.490019
0.409965
0.278289
0.0921344
-0.0606414
-0.149837
-0.186203
-0.187659
-0.159001
-0.104958
-0.031242
0.0565744
0.15314
0.253154
0.351223
0.441741
0.518797
0.576104
0.607241
0.606972
0.57035
0.479666
0.324878
0.000813483
-0.175705
-0.273661
-0.306898
-0.298296
-0.25486
-0.182973
-0.0896401
0.0187637
0.136478
0.258016
0.377847
0.490104
0.588316
0.665172
0.71268
0.723667
0.690744
0.591025
0.411394
-0.141966
-0.343934
-0.447805
-0.472039
-0.446325
-0.380832
-0.284105
-0.164659
-0.0296488
0.114931
0.26366
0.411148
0.55152
0.677907
0.78196
0.853833
0.883811
0.860985
0.755262
0.548821
-0.350887
-0.579895
-0.684424
-0.690444
-0.637462
-0.540198
-0.409976
-0.256965
-0.0889112
0.0883349
0.269894
0.451024
0.626319
0.788899
0.929553
1.03638
1.09641
1.09367
0.987597
0.752595
-0.647137
-0.90369
-0.999052
-0.972206
-0.877221
-0.735219
-0.56089
-0.365971
-0.158312
0.0570698
0.276603
0.496987
0.714082
0.92172
1.11035
1.26608
1.37201
1.40507
1.3092
1.04521
-1.06309
-1.34388
-1.41146
-1.32819
-1.16977
-0.965842
-0.734665
-0.488923
-0.23555
0.0223954
0.283787
0.547913
0.813077
1.07503
1.32499
1.54778
1.7223
1.81612
1.75026
1.46113
-1.65199
-1.94224
-1.94613
-1.76839
-1.51566
-1.22754
-0.924914
-0.61968
-0.31598
-0.0131918
0.29155
0.60162
0.919374
1.24433
1.57051
1.88335
2.1586
2.3529
2.3548
2.05681
-2.50793
-2.76063
-2.63059
-2.29739
-1.90716
-1.5076
-1.1185
-0.747167
-0.391798
-0.0456979
0.299882
0.654137
1.02543
1.41957
1.83677
2.26718
2.68743
3.04509
3.1877
2.93104
-3.80004
-3.88707
-3.48935
-2.90667
-2.32193
-1.78094
-1.29323
-0.854362
-0.4518
-0.0697969
0.308234
0.698948
1.1187
1.58266
2.10224
2.6799
3.30279
3.91969
4.34028
4.25901
-5.83246
-5.43572
-4.53244
-3.56807
-2.7203
-2.00973
-1.41903
-0.920095
-0.483064
-0.0800007
0.315005
0.727063
1.18199
1.70749
2.33286
3.08518
3.97937
4.98926
5.92968
6.35123
-9.28488
-7.55097
-5.69686
-4.18852
-3.01863
-2.12956
-1.45169
-0.916896
-0.470846
-0.071544
0.315976
0.724454
1.18887
1.75124
2.46588
3.40101
4.62561
6.19288
8.10495
9.89567
-15.9314
-10.3233
-6.56605
-4.38392
-2.94828
-1.96849
-1.28693
-0.785242
-0.385459
-0.0364893
0.299954
0.658457
1.07735
1.6078
2.32801
3.35756
4.85665
7.11561
10.9622
16.6723
-27.0777
-12.99
-6.27686
-3.58849
-2.19642
-1.36866
-0.848499
-0.489852
-0.212793
0.0269805
0.259095
0.509287
0.807135
1.19675
1.75776
2.63772
4.10083
6.88632
13.7135
27.916
)
;

boundaryField
{
    movingWall
    {
        type            zeroGradient;
    }
    fixedWalls
    {
        type            zeroGradient;
    }
    frontAndBack
    {
        type            empty;
    }
}


// ************************************************************************* //
