/*--------------------------------*- C++ -*----------------------------------*\
  =========                 |
  \\      /  F ield         | OpenFOAM: The Open Source CFD Toolbox
   \\    /   O peration     | Website:  https://openfoam.org
    \\  /    A nd           | Version:  6
     \\/     M anipulation  |
\*---------------------------------------------------------------------------*/
FoamFile
{
    version     2.0;
    format      ascii;
    class       volVectorField;
    location    "0.1";
    object      U;
}
// * * * * * * * * * * * * * * * * * * * * * * * * * * * * * * * * * * * * * //

dimensions      [0 1 -1 0 0 0 0];

internalField   nonuniform List<vector> 
400
(
(-0.204735 0.036710 0)
(0.746657 -0.003230 0)
(0.918484 -0.044198 0)
(0.884815 0.016768 0)
(0.818922 0.092692 0)
(0.741105 0.157542 0)
(0.663700 0.206211 0)
(0.592394 0.240722 0)
(0.528606 0.264678 0)
(0.471959 0.281299 0)
(0.421561 0.292990 0)
(0.376494 0.301417 0)
(0.335954 0.307704 0)
(0.299281 0.312589 0)
(0.265938 0.316560 0)
(0.235486 0.319931 0)
(0.207569 0.322906 0)
(0.181891 0.325614 0)
(0.158202 0.328140 0)
(0.136292 0.330533 0)
(-0.005654 -0.222335 0)
(0.329963 -0.354216 0)
(0.880150 0.289881 0)
(0.869746 0.263742 0)
(0.814443 0.231932 0)
(0.744785 0.224979 0)
(0.673213 0.232299 0)
(0.605675 0.244942 0)
(0.544060 0.258157 0)
(0.488385 0.270061 0)
(0.438042 0.280202 0)
(0.392331 0.288706 0)
(0.350634 0.295868 0)
(0.312455 0.301985 0)
(0.277388 0.307307 0)
(0.245113 0.312023 0)
(0.215357 0.316273 0)
(0.187887 0.320159 0)
(0.162499 0.323749 0)
(0.139007 0.327095 0)
(0.195339 0.382368 0)
(-0.055980 0.035795 0)
(0.745223 0.383594 0)
(0.816001 0.465680 0)
(0.789299 0.398335 0)
(0.742302 0.329959 0)
(0.687550 0.288127 0)
(0.630793 0.268819 0)
(0.575360 0.263296 0)
(0.522801 0.264886 0)
(0.473579 0.269670 0)
(0.427650 0.275647 0)
(0.384806 0.281891 0)
(0.344826 0.288010 0)
(0.307523 0.293856 0)
(0.272744 0.299385 0)
(0.240356 0.304591 0)
(0.210235 0.309487 0)
(0.182255 0.314089 0)
(0.156288 0.318412 0)
(0.209363 0.795465 0)
(-0.013243 0.678485 0)
(0.417363 0.453369 0)
(0.758755 0.558249 0)
(0.747773 0.523846 0)
(0.720574 0.455391 0)
(0.685673 0.382123 0)
(0.645342 0.328335 0)
(0.601634 0.296671 0)
(0.556580 0.281139 0)
(0.511743 0.275442 0)
(0.468067 0.275138 0)
(0.426020 0.277590 0)
(0.385795 0.281379 0)
(0.347467 0.285793 0)
(0.311071 0.290475 0)
(0.276631 0.295243 0)
(0.244162 0.299995 0)
(0.213658 0.304667 0)
(0.185094 0.309215 0)
(0.202722 0.915868 0)
(0.044990 0.879152 0)
(0.102599 0.652094 0)
(0.686030 0.676421 0)
(0.725062 0.588288 0)
(0.693221 0.541641 0)
(0.669421 0.483932 0)
(0.643910 0.417532 0)
(0.613833 0.361605 0)
(0.579773 0.323742 0)
(0.542948 0.301727 0)
(0.504626 0.290769 0)
(0.465858 0.286590 0)
(0.427390 0.286219 0)
(0.389709 0.287863 0)
(0.353121 0.290548 0)
(0.317835 0.293777 0)
(0.284001 0.297300 0)
(0.251737 0.300988 0)
(0.221127 0.304762 0)
(0.197427 0.953406 0)
(0.070614 0.935893 0)
(0.026726 0.818393 0)
(0.441506 0.724202 0)
(0.714249 0.685203 0)
(0.687899 0.583369 0)
(0.651479 0.543942 0)
(0.631313 0.499235 0)
(0.612536 0.443237 0)
(0.589660 0.390274 0)
(0.562581 0.350018 0)
(0.532125 0.323632 0)
(0.499251 0.308428 0)
(0.464870 0.300926 0)
(0.429775 0.298163 0)
(0.394598 0.298066 0)
(0.359814 0.299380 0)
(0.325773 0.301417 0)
(0.292736 0.303833 0)
(0.260905 0.306462 0)
(0.192007 0.968065 0)
(0.082349 0.956761 0)
(0.045759 0.897636 0)
(0.184456 0.776728 0)
(0.644225 0.778351 0)
(0.698580 0.656477 0)
(0.654648 0.569475 0)
(0.618550 0.540122 0)
(0.601334 0.507174 0)
(0.587395 0.461623 0)
(0.569881 0.414018 0)
(0.548116 0.374095 0)
(0.522711 0.345189 0)
(0.494425 0.326630 0)
(0.463999 0.316115 0)
(0.432144 0.311078 0)
(0.399509 0.309391 0)
(0.366652 0.309569 0)
(0.334023 0.310707 0)
(0.301974 0.312315 0)
(0.185106 0.974878 0)
(0.088312 0.966249 0)
(0.067718 0.931631 0)
(0.075042 0.843100 0)
(0.436561 0.793731 0)
(0.686369 0.761607 0)
(0.674676 0.624014 0)
(0.625614 0.554539 0)
(0.591118 0.534192 0)
(0.576110 0.510779 0)
(0.565702 0.474421 0)
(0.552386 0.432887 0)
(0.534915 0.395017 0)
(0.513693 0.365197 0)
(0.489357 0.344275 0)
(0.462526 0.331149 0)
(0.433797 0.323911 0)
(0.403765 0.320614 0)
(0.372994 0.319687 0)
(0.341983 0.320050 0)
(0.176795 0.978440 0)
(0.091259 0.971247 0)
(0.077047 0.947551 0)
(0.059638 0.890238 0)
(0.227395 0.814806 0)
(0.603160 0.814789 0)
(0.683680 0.723833 0)
(0.649906 0.595296 0)
(0.599833 0.541174 0)
(0.567084 0.527976 0)
(0.553675 0.511878 0)
(0.545872 0.483128 0)
(0.535922 0.447462 0)
(0.522047 0.412531 0)
(0.504414 0.383001 0)
(0.483556 0.360692 0)
(0.460007 0.345501 0)
(0.434275 0.336238 0)
(0.406876 0.331313 0)
(0.378332 0.329223 0)
(0.167732 0.980452 0)
(0.092356 0.974174 0)
(0.079758 0.956154 0)
(0.075452 0.918374 0)
(0.116379 0.850502 0)
(0.420763 0.819696 0)
(0.657981 0.802216 0)
(0.668923 0.684244 0)
(0.625992 0.571814 0)
(0.576424 0.530115 0)
(0.545256 0.522279 0)
(0.532985 0.511600 0)
(0.527100 0.488934 0)
(0.519857 0.458526 0)
(0.509036 0.426839 0)
(0.494535 0.398391 0)
(0.476776 0.375523 0)
(0.456234 0.358863 0)
(0.433346 0.347873 0)
(0.408554 0.341387 0)
(0.158573 0.981652 0)
(0.092232 0.976034 0)
(0.079609 0.961404 0)
(0.088572 0.934332 0)
(0.080979 0.882447 0)
(0.247820 0.830786 0)
(0.563358 0.831322 0)
(0.666884 0.772205 0)
(0.650452 0.648793 0)
(0.603268 0.553317 0)
(0.554796 0.521372 0)
(0.524993 0.517397 0)
(0.513519 0.510621 0)
(0.509030 0.492722 0)
(0.503949 0.466832 0)
(0.495712 0.438346 0)
(0.483954 0.411432 0)
(0.468970 0.388634 0)
(0.451174 0.371064 0)
(0.430955 0.358711 0)
(0.149776 0.982395 0)
(0.091291 0.977294 0)
(0.078120 0.964921 0)
(0.093768 0.943864 0)
(0.083386 0.905942 0)
(0.145024 0.853260 0)
(0.401902 0.832154 0)
(0.627089 0.824780 0)
(0.660037 0.737589 0)
(0.630897 0.619045 0)
(0.581728 0.539082 0)
(0.534586 0.514674 0)
(0.505961 0.513374 0)
(0.495035 0.509336 0)
(0.491540 0.495118 0)
(0.488164 0.473013 0)
(0.482093 0.447506 0)
(0.472723 0.422330 0)
(0.460214 0.400040 0)
(0.444916 0.382033 0)
(0.141589 0.982868 0)
(0.089811 0.978195 0)
(0.075959 0.967453 0)
(0.093626 0.950081 0)
(0.093883 0.921621 0)
(0.101170 0.876506 0)
(0.255872 0.838805 0)
(0.526372 0.840093 0)
(0.646411 0.803821 0)
(0.647184 0.703984 0)
(0.611240 0.594908 0)
(0.561300 0.528318 0)
(0.515586 0.509675 0)
(0.487991 0.510141 0)
(0.477431 0.507964 0)
(0.474620 0.496555 0)
(0.472567 0.477577 0)
(0.468291 0.454742 0)
(0.460981 0.431349 0)
(0.450665 0.409846 0)
(0.134109 0.983174 0)
(0.087987 0.978868 0)
(0.073482 0.969376 0)
(0.090587 0.954484 0)
(0.100689 0.931954 0)
(0.092632 0.896027 0)
(0.163088 0.854317 0)
(0.382696 0.839003 0)
(0.595002 0.837785 0)
(0.646934 0.776681 0)
(0.631812 0.673683 0)
(0.591902 0.575701 0)
(0.541919 0.520307 0)
(0.497665 0.506035 0)
(0.470991 0.507590 0)
(0.460671 0.506625 0)
(0.458309 0.497340 0)
(0.457265 0.480914 0)
(0.454457 0.460427 0)
(0.448904 0.438762 0)
(0.127342 0.983376 0)
(0.085961 0.979390 0)
(0.070897 0.970897 0)
(0.086125 0.957813 0)
(0.102435 0.939066 0)
(0.097509 0.910721 0)
(0.116785 0.872060 0)
(0.256969 0.843235 0)
(0.492663 0.845099 0)
(0.623168 0.823998 0)
(0.639339 0.748169 0)
(0.615379 0.647418 0)
(0.573087 0.560600 0)
(0.523534 0.514443 0)
(0.480749 0.503459 0)
(0.454915 0.505610 0)
(0.444749 0.505381 0)
(0.442658 0.497683 0)
(0.442367 0.483329 0)
(0.440745 0.464871 0)
(0.121251 0.983510 0)
(0.083832 0.979807 0)
(0.068329 0.972138 0)
(0.081088 0.960455 0)
(0.100513 0.944268 0)
(0.103405 0.921306 0)
(0.101177 0.888362 0)
(0.173526 0.854599 0)
(0.363980 0.843004 0)
(0.563089 0.845407 0)
(0.630635 0.803623 0)
(0.627941 0.720721 0)
(0.598589 0.625170 0)
(0.554906 0.548829 0)
(0.506105 0.510233 0)
(0.464784 0.501703 0)
(0.439732 0.504098 0)
(0.429664 0.504264 0)
(0.427714 0.497737 0)
(0.427970 0.485055 0)
(0.115772 0.983599 0)
(0.081673 0.980149 0)
(0.065855 0.973173 0)
(0.075958 0.962624 0)
(0.096372 0.948292 0)
(0.106266 0.928997 0)
(0.100566 0.901750 0)
(0.127529 0.868624 0)
(0.253943 0.845769 0)
(0.462016 0.847988 0)
(0.598295 0.836821 0)
(0.628112 0.780518 0)
(0.614659 0.695482 0)
(0.581822 0.606584 0)
(0.537422 0.539715 0)
(0.489603 0.507288 0)
(0.449730 0.500576 0)
(0.425419 0.502972 0)
(0.415418 0.503288 0)
(0.413513 0.497611 0)
(0.110843 0.983658 0)
(0.079533 0.980434 0)
(0.063515 0.974052 0)
(0.071009 0.964450 0)
(0.091045 0.951545 0)
(0.105874 0.934792 0)
(0.104226 0.912128 0)
(0.107753 0.882380 0)
(0.178603 0.854452 0)
(0.345981 0.845360 0)
(0.532158 0.849843 0)
(0.612177 0.821899 0)
(0.620559 0.756964 0)
(0.600450 0.672891 0)
(0.565305 0.591191 0)
(0.520674 0.532702 0)
(0.474000 0.505305 0)
(0.435555 0.499928 0)
(0.411955 0.502161 0)
(0.402004 0.502456 0)
(0.106397 0.983697 0)
(0.077448 0.980677 0)
(0.061332 0.974809 0)
(0.066385 0.966015 0)
(0.085207 0.954263 0)
(0.103051 0.939349 0)
(0.107127 0.920065 0)
(0.102778 0.894426 0)
(0.134095 0.865847 0)
(0.248373 0.847183 0)
(0.434045 0.849575 0)
(0.572652 0.844939 0)
(0.614588 0.803573 0)
(0.610330 0.734220 0)
(0.585846 0.653002 0)
(0.549181 0.578508 0)
(0.504683 0.527342 0)
(0.459269 0.504053 0)
(0.422225 0.499648 0)
(0.399316 0.501611 0)
(0.102379 0.983723 0)
(0.075441 0.980885 0)
(0.059313 0.975466 0)
(0.062156 0.967374 0)
(0.079285 0.956587 0)
(0.098658 0.943076 0)
(0.107822 0.926230 0)
(0.103909 0.904328 0)
(0.112025 0.877595 0)
(0.179931 0.854034 0)
(0.328773 0.846689 0)
(0.502614 0.852309 0)
(0.592287 0.834269 0)
(0.610821 0.783857 0)
(0.598638 0.712938 0)
(0.571165 0.635672 0)
(0.533547 0.568092 0)
(0.489457 0.523281 0)
(0.445381 0.503355 0)
(0.409710 0.499650 0))
;

boundaryField
{
    movingWall
    {
        type            fixedValue;
        value           uniform (1 0 0);
    }
    fixedWalls
    {
        type            noSlip;
    }
    frontAndBack
    {
        type            empty;
    }
}


// ************************************************************************* //
