/*--------------------------------*- C++ -*----------------------------------*\
  =========                 |
  \\      /  F ield         | OpenFOAM: The Open Source CFD Toolbox
   \\    /   O peration     | Website:  https://openfoam.org
    \\  /    A nd           | Version:  6
     \\/     M anipulation  |
\*---------------------------------------------------------------------------*/
FoamFile
{
    version     2.0;
    format      ascii;
    class       surfaceScalarField;
    location    "0.06";
    object      phi;
}
// * * * * * * * * * * * * * * * * * * * * * * * * * * * * * * * * * * * * * //

dimensions      [0 3 -1 0 0 0 0];

internalField   nonuniform List<scalar> 
760
(
-1.36237e-08
1.36238e-08
-6.90503e-08
5.54266e-08
-1.43841e-07
7.4791e-08
-2.21495e-07
7.76537e-08
-2.94325e-07
7.283e-08
-3.58716e-07
6.43907e-08
-4.12509e-07
5.3793e-08
-4.54064e-07
4.15555e-08
-4.82e-07
2.79358e-08
-4.95165e-07
1.3165e-08
-4.92685e-07
-2.4797e-09
-4.74035e-07
-1.865e-08
-4.39128e-07
-3.49076e-08
-3.8843e-07
-5.0698e-08
-3.23154e-07
-6.52753e-08
-2.45689e-07
-7.74654e-08
-1.60681e-07
-8.5008e-08
-7.77111e-08
-8.29697e-08
-1.58453e-08
-6.18659e-08
-1.58453e-08
-5.62235e-08
6.98473e-08
-1.80949e-07
1.80152e-07
-3.36392e-07
2.30234e-07
-4.96595e-07
2.37856e-07
-6.47032e-07
2.23267e-07
-7.79852e-07
1.97211e-07
-8.9021e-07
1.64151e-07
-9.74592e-07
1.25937e-07
-1.03024e-06
8.35836e-08
-1.05502e-06
3.7944e-08
-1.04744e-06
-1.00573e-08
-1.00677e-06
-5.9326e-08
-9.3315e-07
-1.08522e-07
-8.27893e-07
-1.55955e-07
-6.93824e-07
-1.99344e-07
-5.36154e-07
-2.35136e-07
-3.64372e-07
-2.56789e-07
-1.95957e-07
-2.51385e-07
-6.06986e-08
-1.97124e-07
-7.6544e-08
-8.04504e-08
1.50298e-07
-2.45897e-07
3.45599e-07
-4.45865e-07
4.30202e-07
-6.49611e-07
4.41602e-07
-8.40098e-07
4.13754e-07
-1.00784e-06
3.64956e-07
-1.14686e-06
3.03173e-07
-1.25283e-06
2.31898e-07
-1.32238e-06
1.53134e-07
-1.35296e-06
6.85306e-08
-1.34283e-06
-2.01914e-08
-1.29111e-06
-1.11047e-07
-1.19801e-06
-2.0162e-07
-1.06512e-06
-2.88846e-07
-8.95905e-07
-3.68557e-07
-6.96735e-07
-4.34306e-07
-4.79039e-07
-4.74485e-07
-2.63446e-07
-4.66978e-07
-8.54423e-08
-3.75128e-07
-1.61986e-07
-9.30787e-08
2.43376e-07
-2.83958e-07
5.36478e-07
-5.12462e-07
6.58706e-07
-7.43626e-07
6.72766e-07
-9.58863e-07
6.28991e-07
-1.14801e-06
5.54104e-07
-1.30468e-06
4.59844e-07
-1.42425e-06
3.51468e-07
-1.50313e-06
2.32009e-07
-1.53852e-06
1.03926e-07
-1.52842e-06
-3.02906e-08
-1.47168e-06
-1.67795e-07
-1.36819e-06
-3.05101e-07
-1.21934e-06
-4.37704e-07
-1.02853e-06
-5.5936e-07
-8.0251e-07
-6.6033e-07
-5.53788e-07
-7.23207e-07
-3.05533e-07
-7.15233e-07
-9.89291e-08
-5.81732e-07
-2.60915e-07
-1.02945e-07
3.46321e-07
-3.15259e-07
7.48792e-07
-5.68745e-07
9.12192e-07
-8.24176e-07
9.28197e-07
-1.06132e-06
8.6614e-07
-1.26948e-06
7.62256e-07
-1.44207e-06
6.32435e-07
-1.57439e-06
4.83789e-07
-1.66275e-06
3.2037e-07
-1.70417e-06
1.45343e-07
-1.69628e-06
-3.81783e-08
-1.63741e-06
-2.26661e-07
-1.52682e-06
-4.15692e-07
-1.36516e-06
-5.99363e-07
-1.15534e-06
-7.69177e-07
-9.04109e-07
-9.11564e-07
-6.25118e-07
-1.0022e-06
-3.44759e-07
-9.95592e-07
-1.10922e-07
-8.15569e-07
-3.71837e-07
-1.14337e-07
4.60659e-07
-3.50843e-07
9.85297e-07
-6.32671e-07
1.19402e-06
-9.15745e-07
1.21127e-06
-1.17785e-06
1.12825e-06
-1.40767e-06
9.92077e-07
-1.59856e-06
8.2332e-07
-1.74587e-06
6.31099e-07
-1.84593e-06
4.20427e-07
-1.89558e-06
1.94998e-07
-1.89203e-06
-4.17315e-08
-1.83282e-06
-2.8587e-07
-1.71613e-06
-5.32383e-07
-1.54136e-06
-7.74128e-07
-1.31034e-06
-1.0002e-06
-1.02943e-06
-1.19247e-06
-7.13622e-07
-1.31801e-06
-3.93638e-07
-1.31558e-06
-1.26092e-07
-1.08312e-06
-4.97929e-07
-1.29134e-07
5.89793e-07
-3.96078e-07
1.25224e-06
-7.13127e-07
1.51107e-06
-1.03023e-06
1.52837e-06
-1.32278e-06
1.4208e-06
-1.57883e-06
1.24813e-06
-1.79183e-06
1.03632e-06
-1.95744e-06
7.96708e-07
-2.0722e-06
5.3519e-07
-2.13291e-06
2.55706e-07
-2.13626e-06
-3.83813e-08
-2.07876e-06
-3.43365e-07
-1.957e-06
-6.54151e-07
-1.76835e-06
-9.62779e-07
-1.51262e-06
-1.25593e-06
-1.19507e-06
-1.51001e-06
-8.31954e-07
-1.68113e-06
-4.59681e-07
-1.68785e-06
-1.46881e-07
-1.39592e-06
-6.44811e-07
-1.48491e-07
7.38284e-07
-4.54335e-07
1.55808e-06
-8.1558e-07
1.87231e-06
-1.17462e-06
1.88741e-06
-1.504e-06
1.75018e-06
-1.79132e-06
1.53544e-06
-2.03047e-06
1.27547e-06
-2.21785e-06
9.84086e-07
-2.3506e-06
6.6794e-07
-2.42571e-06
3.30817e-07
-2.43943e-06
-2.46613e-08
-2.38698e-06
-3.95815e-07
-2.26268e-06
-7.78449e-07
-2.0608e-06
-1.16466e-06
-1.77764e-06
-1.53909e-06
-1.41583e-06
-1.87183e-06
-9.92151e-07
-2.1048e-06
-5.50213e-07
-2.12979e-06
-1.75596e-07
-1.77053e-06
-8.20406e-07
-1.73675e-07
9.11959e-07
-5.29096e-07
1.91351e-06
-9.45373e-07
2.28859e-06
-1.35526e-06
2.29729e-06
-1.72811e-06
2.12303e-06
-2.05143e-06
1.85876e-06
-2.32028e-06
1.54432e-06
-2.53248e-06
1.19629e-06
-2.68643e-06
8.21887e-07
-2.7798e-06
4.24184e-07
-2.80862e-06
4.1623e-09
-2.76667e-06
-4.37766e-07
-2.64528e-06
-8.99838e-07
-2.43408e-06
-1.37586e-06
-2.12352e-06
-1.84965e-06
-1.71073e-06
-2.28462e-06
-1.21094e-06
-2.60459e-06
-6.76031e-07
-2.66469e-06
-2.15799e-07
-2.23077e-06
-1.0362e-06
-2.06611e-07
1.11857e-06
-6.25289e-07
2.33218e-06
-1.1096e-06
2.77291e-06
-1.58004e-06
2.76773e-06
-2.00265e-06
2.54563e-06
-2.36571e-06
2.22183e-06
-2.66655e-06
1.84516e-06
-2.90554e-06
1.43528e-06
-3.08334e-06
9.99683e-07
-3.19913e-06
5.39979e-07
-3.24931e-06
5.4336e-08
-3.22629e-06
-4.60787e-07
-3.11777e-06
-1.00836e-06
-2.90689e-06
-1.58674e-06
-2.57475e-06
-2.18179e-06
-2.10795e-06
-2.75142e-06
-1.51516e-06
-3.19738e-06
-8.55859e-07
-3.32399e-06
-2.74174e-07
-2.81245e-06
-1.31038e-06
-2.50537e-07
1.36911e-06
-7.50632e-07
2.83228e-06
-1.31873e-06
3.34101e-06
-1.8599e-06
3.3089e-06
-2.33733e-06
3.02307e-06
-2.74176e-06
2.62626e-06
-3.07451e-06
2.17791e-06
-3.34015e-06
1.70092e-06
-3.54305e-06
1.20259e-06
-3.68522e-06
6.82145e-07
-3.76444e-06
1.33563e-07
-3.77249e-06
-4.52743e-07
-3.69324e-06
-1.0876e-06
-3.50153e-06
-1.77844e-06
-3.1645e-06
-2.51882e-06
-2.64997e-06
-3.26595e-06
-1.94948e-06
-3.89787e-06
-1.12403e-06
-4.14944e-06
-3.64391e-07
-3.57209e-06
-1.67477e-06
-3.11143e-07
1.68025e-06
-9.17672e-07
3.43881e-06
-1.58856e-06
4.0119e-06
-2.21015e-06
3.93049e-06
-2.74468e-06
3.5576e-06
-3.18816e-06
3.06973e-06
-3.54857e-06
2.53832e-06
-3.83694e-06
1.98929e-06
-4.06331e-06
1.42895e-06
-4.23429e-06
8.53132e-07
-4.35089e-06
2.5016e-07
-4.40586e-06
-3.97773e-07
-4.38038e-06
-1.11309e-06
-4.2402e-06
-1.91862e-06
-3.93358e-06
-2.82544e-06
-3.39745e-06
-3.80208e-06
-2.58627e-06
-4.70905e-06
-1.54353e-06
-5.19219e-06
-5.15358e-07
-4.60026e-06
-2.19013e-06
-3.98803e-07
2.07905e-06
-1.1471e-06
4.1871e-06
-1.9428e-06
4.8076e-06
-2.65149e-06
4.63918e-06
-3.23923e-06
4.14534e-06
-3.7122e-06
3.5427e-06
-4.08877e-06
2.9149e-06
-4.38926e-06
2.28978e-06
-4.63174e-06
1.67142e-06
-4.82967e-06
1.05107e-06
-4.98981e-06
4.10296e-07
-5.10899e-06
-2.78588e-07
-5.16908e-06
-1.05301e-06
-5.12903e-06
-1.95867e-06
-4.91556e-06
-3.0389e-06
-4.42041e-06
-4.29723e-06
-3.52826e-06
-5.60121e-06
-2.22048e-06
-6.49997e-06
-7.85413e-07
-6.03533e-06
-2.97554e-06
-5.32815e-07
2.61187e-06
-1.47252e-06
5.12681e-06
-2.4144e-06
5.74948e-06
-3.20677e-06
5.43155e-06
-3.83022e-06
4.76878e-06
-4.3089e-06
4.02139e-06
-4.6766e-06
3.28259e-06
-4.96616e-06
2.57934e-06
-5.206e-06
1.91127e-06
-5.41864e-06
1.26372e-06
-5.61939e-06
6.11047e-07
-5.81354e-06
-8.44453e-08
-5.99002e-06
-8.76519e-07
-6.10885e-06
-1.83985e-06
-6.08016e-06
-3.06758e-06
-5.74137e-06
-4.63603e-06
-4.86617e-06
-6.4764e-06
-3.2916e-06
-8.07454e-06
-1.27384e-06
-8.05309e-06
-4.24938e-06
-7.48709e-07
3.36058e-06
-1.94415e-06
6.32225e-06
-3.03706e-06
6.8424e-06
-3.87931e-06
6.27379e-06
-4.48831e-06
5.37778e-06
-4.91829e-06
4.45136e-06
-5.22459e-06
3.5889e-06
-5.45567e-06
2.81042e-06
-5.65159e-06
2.10719e-06
-5.84464e-06
1.45677e-06
-6.06014e-06
8.26541e-07
-6.31552e-06
1.70935e-07
-6.61481e-06
-5.77221e-07
-6.933e-06
-1.52166e-06
-7.18243e-06
-2.81816e-06
-7.15901e-06
-4.65944e-06
-6.50238e-06
-7.13303e-06
-4.79976e-06
-9.77717e-06
-2.09118e-06
-1.07617e-05
-6.34056e-06
-1.10714e-06
4.46772e-06
-2.61575e-06
7.83086e-06
-3.79216e-06
8.0188e-06
-4.56306e-06
7.04469e-06
-5.02693e-06
5.84165e-06
-5.28544e-06
4.70987e-06
-5.42169e-06
3.72515e-06
-5.50043e-06
2.88916e-06
-5.57109e-06
2.17784e-06
-5.67207e-06
1.55775e-06
-5.83522e-06
9.89691e-07
-6.08863e-06
4.24345e-07
-6.45508e-06
-2.10768e-07
-6.93907e-06
-1.03767e-06
-7.4884e-06
-2.26883e-06
-7.91315e-06
-4.23469e-06
-7.77109e-06
-7.27508e-06
-6.35293e-06
-1.11953e-05
-3.20245e-06
-1.39121e-05
-9.54301e-06
-1.69299e-06
6.16071e-06
-3.44713e-06
9.585e-06
-4.39533e-06
8.967e-06
-4.74472e-06
7.39408e-06
-4.75324e-06
5.85017e-06
-4.58678e-06
4.54341e-06
-4.35218e-06
3.49055e-06
-4.11984e-06
2.65682e-06
-3.93579e-06
1.99379e-06
-3.83169e-06
1.45365e-06
-3.83345e-06
9.91448e-07
-3.96835e-06
5.59253e-07
-4.26991e-06
9.07841e-08
-4.77607e-06
-5.31509e-07
-5.50643e-06
-1.53848e-06
-6.38578e-06
-3.35534e-06
-7.0675e-06
-6.59336e-06
-6.69054e-06
-1.15723e-05
-4.08358e-06
-1.65191e-05
-1.36266e-05
-2.55603e-06
8.71674e-06
-3.84298e-06
1.0872e-05
-3.57494e-06
8.69896e-06
-2.69776e-06
6.5169e-06
-1.68597e-06
4.83838e-06
-7.15555e-07
3.573e-06
1.41366e-07
2.63363e-06
8.53668e-07
1.94452e-06
1.41212e-06
1.43534e-06
1.81675e-06
1.04902e-06
2.06703e-06
7.41173e-07
2.15381e-06
4.72471e-07
2.04983e-06
1.94769e-07
1.69549e-06
-1.77174e-07
9.83827e-07
-8.2681e-07
-2.23365e-07
-2.14814e-06
-1.94103e-06
-4.8757e-06
-3.59495e-06
-9.91837e-06
-3.41639e-06
-1.66977e-05
-1.7043e-05
-2.79099e-06
1.15077e-05
-5.34482e-07
8.61544e-06
2.96484e-06
5.19963e-06
5.98858e-06
3.49316e-06
8.39324e-06
2.43372e-06
1.02822e-05
1.68408e-06
1.17488e-05
1.16697e-06
1.28732e-05
8.20104e-07
1.37234e-05
5.85185e-07
1.43518e-05
4.20618e-07
1.4794e-05
2.98981e-07
1.50666e-05
1.99834e-07
1.51595e-05
1.019e-07
1.50122e-05
-2.98878e-08
1.44606e-05
-2.75197e-07
1.31496e-05
-8.37196e-07
1.05063e-05
-2.23232e-06
6.09461e-06
-5.50673e-06
1.04248e-06
-1.16455e-05
-1.60005e-05
1.15077e-05
2.01232e-05
2.53228e-05
2.8816e-05
3.12497e-05
3.29338e-05
3.41007e-05
3.49208e-05
3.5506e-05
3.59266e-05
3.62256e-05
3.64255e-05
3.65274e-05
3.64975e-05
3.62223e-05
3.53851e-05
3.31528e-05
2.7646e-05
1.60005e-05
)
;

boundaryField
{
    movingWall
    {
        type            calculated;
        value           uniform 0;
    }
    fixedWalls
    {
        type            calculated;
        value           uniform 0;
    }
    frontAndBack
    {
        type            empty;
        value           nonuniform 0();
    }
}


// ************************************************************************* //
