/*--------------------------------*- C++ -*----------------------------------*\
  =========                 |
  \\      /  F ield         | OpenFOAM: The Open Source CFD Toolbox
   \\    /   O peration     | Website:  https://openfoam.org
    \\  /    A nd           | Version:  6
     \\/     M anipulation  |
\*---------------------------------------------------------------------------*/
FoamFile
{
    version     2.0;
    format      ascii;
    class       volVectorField;
    location    "0.05";
    object      U;
}
// * * * * * * * * * * * * * * * * * * * * * * * * * * * * * * * * * * * * * //

dimensions      [0 1 -1 0 0 0 0];

internalField   nonuniform List<vector> 
400
(
(-7.56331e-05 7.39145e-05 0)
(-0.000728234 0.00043423 0)
(-0.0021013 0.000612369 0)
(-0.00370788 0.000641834 0)
(-0.00527061 0.000602062 0)
(-0.00668332 0.000531431 0)
(-0.00789287 0.000443264 0)
(-0.00886209 0.000341983 0)
(-0.00956132 0.000229635 0)
(-0.00996632 0.000108075 0)
(-0.0100583 -2.04148e-05 0)
(-0.00982518 -0.000152958 0)
(-0.00926268 -0.000285987 0)
(-0.00837636 -0.00041508 0)
(-0.00718421 -0.000534333 0)
(-0.00572175 -0.000634208 0)
(-0.00405312 -0.000695197 0)
(-0.00231012 -0.00067234 0)
(-0.000810807 -0.000481188 0)
(-8.94379e-05 -8.94257e-05 0)
(-0.000440019 0.000723386 0)
(-0.0021872 0.00215524 0)
(-0.00515923 0.0028394 0)
(-0.0085027 0.00295595 0)
(-0.0117417 0.00277735 0)
(-0.0146729 0.00245015 0)
(-0.017178 0.00203472 0)
(-0.0191734 0.00155571 0)
(-0.0205967 0.00102633 0)
(-0.0214002 0.000457564 0)
(-0.0215499 -0.000138733 0)
(-0.0210261 -0.000748697 0)
(-0.0198261 -0.00135564 0)
(-0.0179671 -0.00193886 0)
(-0.0154929 -0.00247053 0)
(-0.0124842 -0.00290648 0)
(-0.00907672 -0.00316289 0)
(-0.0055146 -0.00306919 0)
(-0.0023368 -0.00233657 0)
(-0.000469333 -0.000790673 0)
(-0.000654185 0.00213763 0)
(-0.00305434 0.00517948 0)
(-0.006952 0.00656476 0)
(-0.0112464 0.0067861 0)
(-0.0153727 0.00636997 0)
(-0.0190956 0.00561314 0)
(-0.0222704 0.00464904 0)
(-0.0247928 0.00353749 0)
(-0.0265859 0.00231258 0)
(-0.027592 0.00100193 0)
(-0.0277704 -0.000366206 0)
(-0.0270981 -0.00175997 0)
(-0.0255719 -0.00314148 0)
(-0.0232134 -0.00446366 0)
(-0.0200762 -0.00566286 0)
(-0.0162602 -0.00663958 0)
(-0.0119303 -0.00721247 0)
(-0.00737132 -0.00703627 0)
(-0.00322634 -0.00555296 0)
(-0.000686063 -0.0022822 0)
(-0.000761333 0.00393111 0)
(-0.00354984 0.0088856 0)
(-0.00804652 0.0110425 0)
(-0.012955 0.0113446 0)
(-0.0176418 0.010625 0)
(-0.0218562 0.00934955 0)
(-0.025444 0.00773237 0)
(-0.0282937 0.00587281 0)
(-0.0303234 0.00382878 0)
(-0.0314711 0.00164668 0)
(-0.0316918 -0.000627373 0)
(-0.0309576 -0.00294208 0)
(-0.0292605 -0.00523649 0)
(-0.0266172 -0.007434 0)
(-0.0230796 -0.00943001 0)
(-0.0187511 -0.0110614 0)
(-0.0138089 -0.0120356 0)
(-0.00856564 -0.0118069 0)
(-0.00375696 -0.00948958 0)
(-0.000797195 -0.00416177 0)
(-0.000841695 0.00593401 0)
(-0.00394928 0.0130305 0)
(-0.00896506 0.016021 0)
(-0.0144171 0.0163839 0)
(-0.0196006 0.0153105 0)
(-0.0242485 0.0134552 0)
(-0.0282013 0.0111194 0)
(-0.0313454 0.00844401 0)
(-0.033598 0.00551089 0)
(-0.0348953 0.00238429 0)
(-0.035188 -0.000873528 0)
(-0.0344406 -0.00419388 0)
(-0.0326343 -0.00749422 0)
(-0.0297731 -0.0106683 0)
(-0.0258971 -0.0135672 0)
(-0.0211048 -0.0159562 0)
(-0.0155817 -0.0174153 0)
(-0.00967553 -0.017166 0)
(-0.00423172 -0.0139332 0)
(-0.000889641 -0.00627199 0)
(-0.000935693 0.00814706 0)
(-0.00440542 0.0176333 0)
(-0.0100074 0.0215397 0)
(-0.0160768 0.02195 0)
(-0.0218246 0.0204694 0)
(-0.0269632 0.0179678 0)
(-0.0313288 0.0148439 0)
(-0.0348092 0.0112834 0)
(-0.037324 0.00739197 0)
(-0.0388097 0.003249 0)
(-0.0392126 -0.00107116 0)
(-0.0384867 -0.00548718 0)
(-0.0365959 -0.00989893 0)
(-0.0335221 -0.014172 0)
(-0.0292826 -0.0181098 0)
(-0.0239609 -0.0213934 0)
(-0.0177478 -0.0234486 0)
(-0.0110371 -0.0232162 0)
(-0.00481837 -0.0189584 0)
(-0.00100616 -0.00863881 0)
(-0.00106063 0.0106296 0)
(-0.00499273 0.0228047 0)
(-0.0113281 0.0277247 0)
(-0.0181622 0.0281639 0)
(-0.0246011 0.0262076 0)
(-0.0303339 0.0229755 0)
(-0.0351955 0.0189788 0)
(-0.0390801 0.0144524 0)
(-0.041915 0.009525 0)
(-0.0436412 0.00428686 0)
(-0.0442018 -0.00118253 0)
(-0.0435374 -0.00679737 0)
(-0.0415873 -0.0124478 0)
(-0.0382986 -0.0179761 0)
(-0.0336494 -0.0231351 0)
(-0.0276913 -0.0275049 0)
(-0.0206107 -0.0303185 0)
(-0.0128569 -0.0301667 0)
(-0.0056128 -0.0247497 0)
(-0.00116732 -0.0113532 0)
(-0.00122732 0.0134675 0)
(-0.00575972 0.0287047 0)
(-0.0130283 0.0347497 0)
(-0.0208172 0.0351822 0)
(-0.0281016 0.0326542 0)
(-0.0345467 0.0285808 0)
(-0.0399936 0.0236051 0)
(-0.0443524 0.0180178 0)
(-0.0475681 0.0119687 0)
(-0.0495931 0.00555243 0)
(-0.0503712 -0.00115726 0)
(-0.049828 -0.00808343 0)
(-0.0478694 -0.0151205 0)
(-0.0443909 -0.0220982 0)
(-0.0393057 -0.0287199 0)
(-0.032604 -0.0344459 0)
(-0.0244429 -0.0382626 0)
(-0.0153284 -0.0383081 0)
(-0.00670468 -0.0315754 0)
(-0.00139107 -0.0145455 0)
(-0.00144849 0.0167715 0)
(-0.00675948 0.0355401 0)
(-0.0152126 0.042831 0)
(-0.024182 0.0431889 0)
(-0.0324797 0.0399504 0)
(-0.0397531 0.0348872 0)
(-0.0458638 0.0287999 0)
(-0.0507545 0.0220421 0)
(-0.0544032 0.0147824 0)
(-0.0567867 0.0071091 0)
(-0.0578572 -0.00092533 0)
(-0.0575263 -0.00927342 0)
(-0.055658 -0.0178573 0)
(-0.0520738 -0.0265157 0)
(-0.0465847 -0.0349142 0)
(-0.0390683 -0.0423758 0)
(-0.0296002 -0.0475694 0)
(-0.0187222 -0.0480292 0)
(-0.00822633 -0.0398123 0)
(-0.00170526 -0.0183973 0)
(-0.00174481 0.0206863 0)
(-0.00807086 0.0435757 0)
(-0.0180257 0.052231 0)
(-0.0284384 0.0523902 0)
(-0.0379217 0.0482379 0)
(-0.0461211 0.0419846 0)
(-0.0529454 0.034621 0)
(-0.0583963 0.0265714 0)
(-0.062509 0.0180175 0)
(-0.0653046 0.00902717 0)
(-0.0667578 -0.00039066 0)
(-0.0667726 -0.0102478 0)
(-0.0651649 -0.0205307 0)
(-0.0616579 -0.0311275 0)
(-0.0559086 -0.0416973 0)
(-0.0475998 -0.0514229 0)
(-0.0366233 -0.0585711 0)
(-0.0234835 -0.0598487 0)
(-0.0104132 -0.0500047 0)
(-0.00216382 -0.0231776 0)
(-0.00215313 0.0254129 0)
(-0.00982326 0.0531606 0)
(-0.0216895 0.0632705 0)
(-0.0338478 0.0630097 0)
(-0.0446765 0.0576435 0)
(-0.0538568 0.0499296 0)
(-0.0613893 0.0410869 0)
(-0.0673751 0.0316167 0)
(-0.0719411 0.0217043 0)
(-0.0751816 0.0113775 0)
(-0.077117 0.000572358 0)
(-0.0776596 -0.0108221 0)
(-0.0765807 -0.0229106 0)
(-0.0734844 -0.0356982 0)
(-0.0678122 -0.0489074 0)
(-0.05893 -0.0616174 0)
(-0.0463598 -0.0716141 0)
(-0.0303799 -0.0744613 0)
(-0.0137152 -0.0629777 0)
(-0.00288131 -0.0293244 0)
(-0.00274238 0.0312502 0)
(-0.0122377 0.0647733 0)
(-0.0265533 0.0763432 0)
(-0.0407913 0.0752767 0)
(-0.053078 0.0682524 0)
(-0.0632076 0.0587132 0)
(-0.0713445 0.0481451 0)
(-0.0777467 0.0371264 0)
(-0.0826795 0.0258294 0)
(-0.0863489 0.0142157 0)
(-0.0888551 0.0021142 0)
(-0.0901495 -0.0107343 0)
(-0.0899819 -0.0246242 0)
(-0.0878371 -0.0397812 0)
(-0.0828864 -0.0561257 0)
(-0.0740209 -0.0727569 0)
(-0.0600851 -0.0869674 0)
(-0.0407181 -0.0927775 0)
(-0.0190071 -0.0800383 0)
(-0.00411064 -0.0376303 0)
(-0.00364605 0.0386752 0)
(-0.0156995 0.079091 0)
(-0.0331654 0.0919245 0)
(-0.0498056 0.0893906 0)
(-0.063536 0.0800549 0)
(-0.0744126 0.0682045 0)
(-0.082875 0.0556195 0)
(-0.0894149 0.0429392 0)
(-0.0944923 0.030294 0)
(-0.0984703 0.0175474 0)
(-0.101573 0.00438407 0)
(-0.103839 -0.00965306 0)
(-0.105054 -0.0251299 0)
(-0.104632 -0.0426335 0)
(-0.101467 -0.062507 0)
(-0.0938229 -0.0841598 0)
(-0.0794282 -0.10458 0)
(-0.0565071 -0.115865 0)
(-0.0279009 -0.103265 0)
(-0.00639176 -0.0496304 0)
(-0.00512607 0.0484984 0)
(-0.0208764 0.0970827 0)
(-0.0423405 0.110537 0)
(-0.0615375 0.105421 0)
(-0.0763759 0.0928309 0)
(-0.0874488 0.0780422 0)
(-0.0956312 0.0631146 0)
(-0.101741 0.0486994 0)
(-0.106491 0.034836 0)
(-0.110442 0.0212502 0)
(-0.113985 0.0074515 0)
(-0.117308 -0.00725089 0)
(-0.120326 -0.0237636 0)
(-0.12251 -0.0431904 0)
(-0.122597 -0.0666153 0)
(-0.118192 -0.0942961 0)
(-0.105439 -0.123527 0)
(-0.0799688 -0.144464 0)
(-0.0428654 -0.13558 0)
(-0.0107365 -0.0681823 0)
(-0.00768257 0.062156 0)
(-0.0288559 0.120087 0)
(-0.0550611 0.132578 0)
(-0.0763047 0.123046 0)
(-0.0911024 0.105889 0)
(-0.101067 0.0874027 0)
(-0.107716 0.0698167 0)
(-0.112284 0.0536842 0)
(-0.115769 0.0388694 0)
(-0.118939 0.02491 0)
(-0.12236 0.0111213 0)
(-0.126415 -0.00342216 0)
(-0.131253 -0.0199843 0)
(-0.136612 -0.0402944 0)
(-0.141389 -0.0665251 0)
(-0.142834 -0.100564 0)
(-0.135367 -0.141264 0)
(-0.110844 -0.177825 0)
(-0.0660109 -0.180079 0)
(-0.0185286 -0.0980292 0)
(-0.0121777 0.0822388 0)
(-0.0410766 0.149649 0)
(-0.0715712 0.157663 0)
(-0.0922418 0.140795 0)
(-0.103841 0.117377 0)
(-0.109766 0.0944317 0)
(-0.112363 0.0740509 0)
(-0.1133 0.0564606 0)
(-0.113804 0.0412013 0)
(-0.114757 0.0275504 0)
(-0.116817 0.0146244 0)
(-0.120509 0.00131376 0)
(-0.126253 -0.0139247 0)
(-0.134252 -0.033417 0)
(-0.144062 -0.0606403 0)
(-0.153423 -0.0999423 0)
(-0.155946 -0.153623 0)
(-0.139748 -0.212693 0)
(-0.0943531 -0.23875 0)
(-0.0300409 -0.146671 0)
(-0.0197451 0.113457 0)
(-0.0581193 0.185985 0)
(-0.0874832 0.181981 0)
(-0.0992134 0.153604 0)
(-0.100115 0.122457 0)
(-0.0961132 0.0950327 0)
(-0.0901941 0.0725386 0)
(-0.0841488 0.0544536 0)
(-0.0791035 0.039776 0)
(-0.0757509 0.0274483 0)
(-0.0745762 0.0164181 0)
(-0.0760323 0.00550789 0)
(-0.0806618 -0.00689863 0)
(-0.0891495 -0.0234454 0)
(-0.102153 -0.0487054 0)
(-0.11927 -0.0898385 0)
(-0.135964 -0.154585 0)
(-0.139624 -0.240631 0)
(-0.111101 -0.307129 0)
(-0.0396197 -0.223112 0)
(-0.0301553 0.16375 0)
(-0.0736195 0.221934 0)
(-0.0801531 0.190806 0)
(-0.0626116 0.14803 0)
(-0.0393262 0.111162 0)
(-0.0169135 0.0822675 0)
(0.00280297 0.060532 0)
(0.0191128 0.044373 0)
(0.0318337 0.0321841 0)
(0.0410508 0.0226389 0)
(0.0468659 0.0146554 0)
(0.0492213 0.00720032 0)
(0.0477376 -0.00105512 0)
(0.041482 -0.0124 0)
(0.0286541 -0.0313617 0)
(0.00663305 -0.0666011 0)
(-0.0258845 -0.13161 0)
(-0.0627325 -0.236514 0)
(-0.0786355 -0.352322 0)
(-0.0269489 -0.31496 0)
(-0.0234492 0.231044 0)
(-0.0371554 0.228487 0)
(0.0322649 0.158397 0)
(0.106166 0.109316 0)
(0.163424 0.0761931 0)
(0.206457 0.0529789 0)
(0.239071 0.0369477 0)
(0.263599 0.0260279 0)
(0.28175 0.0184794 0)
(0.294862 0.013043 0)
(0.303848 0.00885389 0)
(0.309176 0.00524133 0)
(0.310793 0.00148455 0)
(0.307835 -0.00359511 0)
(0.297921 -0.0125467 0)
(0.275845 -0.0313905 0)
(0.232465 -0.0737283 0)
(0.1572 -0.161947 0)
(0.0671579 -0.297196 0)
(0.0572773 -0.335197 0)
(0.269766 0.137349 0)
(0.338185 0.121586 0)
(0.464533 0.0789023 0)
(0.562741 0.0504494 0)
(0.623209 0.0326353 0)
(0.66102 0.021047 0)
(0.686168 0.0135666 0)
(0.70337 0.00885433 0)
(0.715258 0.0059009 0)
(0.72352 0.00400585 0)
(0.729176 0.0027206 0)
(0.732744 0.00175213 0)
(0.734305 0.000866837 0)
(0.733352 -0.000222938 0)
(0.728241 -0.00208008 0)
(0.714605 -0.00608157 0)
(0.682609 -0.0159848 0)
(0.609212 -0.0412799 0)
(0.462299 -0.101024 0)
(0.3446 -0.147813 0)
)
;

boundaryField
{
    movingWall
    {
        type            fixedValue;
        value           uniform (1 0 0);
    }
    fixedWalls
    {
        type            noSlip;
    }
    frontAndBack
    {
        type            empty;
    }
}


// ************************************************************************* //
