/*--------------------------------*- C++ -*----------------------------------*\
  =========                 |
  \\      /  F ield         | OpenFOAM: The Open Source CFD Toolbox
   \\    /   O peration     | Website:  https://openfoam.org
    \\  /    A nd           | Version:  6
     \\/     M anipulation  |
\*---------------------------------------------------------------------------*/
FoamFile
{
    version     2.0;
    format      ascii;
    class       volVectorField;
    location    "0.27";
    object      U;
}
// * * * * * * * * * * * * * * * * * * * * * * * * * * * * * * * * * * * * * //

dimensions      [0 1 -1 0 0 0 0];

internalField   nonuniform List<vector> 
400
(
(9.16546e-05 -9.3844e-05 0)
(-0.00019362 0.000204297 0)
(-0.0013028 0.00047791 0)
(-0.00295392 0.000633606 0)
(-0.00486154 0.000696194 0)
(-0.00682648 0.000694967 0)
(-0.00870264 0.000647415 0)
(-0.0103701 0.000559709 0)
(-0.0117153 0.000430366 0)
(-0.0126215 0.000255821 0)
(-0.0129718 3.6579e-05 0)
(-0.0126671 -0.000217055 0)
(-0.0116558 -0.000480817 0)
(-0.00996877 -0.000715745 0)
(-0.00774873 -0.000872892 0)
(-0.00526075 -0.00090452 0)
(-0.0028678 -0.000779956 0)
(-0.000969588 -0.000500586 0)
(8.75437e-05 -0.000119136 0)
(0.000184488 0.000172738 0)
(-0.000211986 0.000186986 0)
(-0.00160892 0.00156593 0)
(-0.00466423 0.00273624 0)
(-0.00877061 0.00343334 0)
(-0.0133818 0.00371754 0)
(-0.0180879 0.00368235 0)
(-0.022549 0.00339318 0)
(-0.0264696 0.00287989 0)
(-0.0295763 0.00214717 0)
(-0.0316045 0.00119534 0)
(-0.0323093 4.47049e-05 0)
(-0.0315007 -0.00124176 0)
(-0.0290989 -0.00254327 0)
(-0.0251977 -0.00368086 0)
(-0.0201167 -0.0044399 0)
(-0.0144143 -0.00461887 0)
(-0.00883302 -0.00409773 0)
(-0.00416877 -0.00290473 0)
(-0.00111693 -0.00128171 0)
(-3.53245e-05 0.000124007 0)
(-0.000537792 0.00135786 0)
(-0.00303798 0.00469741 0)
(-0.0078537 0.00731079 0)
(-0.0139984 0.00887377 0)
(-0.0207317 0.0094932 0)
(-0.027525 0.00934161 0)
(-0.0339238 0.00855091 0)
(-0.039523 0.00719053 0)
(-0.0439462 0.00528499 0)
(-0.0468329 0.0028553 0)
(-0.0478525 -3.05511e-05 0)
(-0.0467474 -0.00321013 0)
(-0.0434027 -0.00639501 0)
(-0.0379283 -0.00917147 0)
(-0.0307324 -0.0110502 0)
(-0.02255 -0.0115751 0)
(-0.0143804 -0.0104778 0)
(-0.00731755 -0.00783243 0)
(-0.00238223 -0.00417429 0)
(-0.000283298 -0.000674323 0)
(-0.000799561 0.00327922 0)
(-0.00425779 0.0093132 0)
(-0.0106416 0.0137114 0)
(-0.0185663 0.0162786 0)
(-0.0271053 0.0172391 0)
(-0.0356493 0.0168735 0)
(-0.0436797 0.0153931 0)
(-0.0507311 0.0129122 0)
(-0.0563653 0.00947703 0)
(-0.0601519 0.00513074 0)
(-0.0616794 -6.58218e-06 0)
(-0.0606005 -0.00565972 0)
(-0.0567128 -0.011343 0)
(-0.0500658 -0.0163537 0)
(-0.0410737 -0.0198465 0)
(-0.0305878 -0.0210109 0)
(-0.019857 -0.0193408 0)
(-0.0103357 -0.014916 0)
(-0.00348418 -0.00859026 0)
(-0.000453179 -0.0020919 0)
(-0.0010116 0.00580373 0)
(-0.00529884 0.0151866 0)
(-0.0130842 0.0216618 0)
(-0.0226116 0.0253256 0)
(-0.0327803 0.0266147 0)
(-0.042924 0.0259643 0)
(-0.0524956 0.0236827 0)
(-0.0610067 0.0199298 0)
(-0.0679866 0.0147624 0)
(-0.0729471 0.008226 0)
(-0.0753816 0.000468784 0)
(-0.0748053 -0.00814102 0)
(-0.0708464 -0.0169209 0)
(-0.0633877 -0.0248403 0)
(-0.0527451 -0.0306014 0)
(-0.0398275 -0.0328879 0)
(-0.0261669 -0.0307871 0)
(-0.0137251 -0.0242734 0)
(-0.00461736 -0.0145354 0)
(-0.000583778 -0.00401947 0)
(-0.00119401 0.00884493 0)
(-0.00622305 0.0221885 0)
(-0.0152922 0.0310376 0)
(-0.0263102 0.0359079 0)
(-0.0380223 0.0375454 0)
(-0.0497293 0.0365968 0)
(-0.0608879 0.0334914 0)
(-0.0710214 0.0284321 0)
(-0.0796536 0.0214627 0)
(-0.0862483 0.0125884 0)
(-0.0901841 0.00192988 0)
(-0.0907801 -0.0101087 0)
(-0.0873905 -0.0226819 0)
(-0.0795895 -0.0344056 0)
(-0.0674434 -0.0434067 0)
(-0.0518132 -0.0476295 0)
(-0.0345286 -0.0454585 0)
(-0.0182524 -0.0365342 0)
(-0.00610645 -0.0223866 0)
(-0.000740113 -0.00651125 0)
(-0.00136156 0.0123543 0)
(-0.0070833 0.030236 0)
(-0.0173649 0.0417576 0)
(-0.0298071 0.0479664 0)
(-0.0430236 0.050016 0)
(-0.056309 0.0488284 0)
(-0.0691596 0.0449824 0)
(-0.0811488 0.0387199 0)
(-0.0918291 0.0300362 0)
(-0.100635 0.0188311 0)
(-0.10682 0.0051058 0)
(-0.109454 -0.010803 0)
(-0.107506 -0.0279705 0)
(-0.100069 -0.0446692 0)
(-0.0867487 -0.0583213 0)
(-0.0681627 -0.0658135 0)
(-0.0463601 -0.0643543 0)
(-0.024882 -0.0528053 0)
(-0.0083697 -0.0329457 0)
(-0.00100179 -0.00981595 0)
(-0.00152401 0.016309 0)
(-0.00791698 0.0392833 0)
(-0.0193706 0.0537698 0)
(-0.0331868 0.0614602 0)
(-0.0478651 0.0640212 0)
(-0.0627239 0.0627233 0)
(-0.0773383 0.0583289 0)
(-0.091377 0.0511152 0)
(-0.104466 0.0409864 0)
(-0.116048 0.0276519 0)
(-0.125267 0.0108669 0)
(-0.130917 -0.00925531 0)
(-0.131495 -0.0318611 0)
(-0.125447 -0.0549587 0)
(-0.111664 -0.0751758 0)
(-0.0902067 -0.0879791 0)
(-0.0630826 -0.0887274 0)
(-0.0347328 -0.0747021 0)
(-0.0119403 -0.0475384 0)
(-0.00147541 -0.0144204 0)
(-0.00168835 0.0207026 0)
(-0.00874988 0.04931 0)
(-0.0213473 0.0670328 0)
(-0.0364681 0.076333 0)
(-0.0525048 0.0795116 0)
(-0.0688274 0.0782734 0)
(-0.0851292 0.073608 0)
(-0.101222 0.0658291 0)
(-0.11686 0.0547059 0)
(-0.131552 0.0396634 0)
(-0.144389 0.0200607 0)
(-0.153923 -0.00441328 0)
(-0.15817 -0.0331983 0)
(-0.15483 -0.0642181 0)
(-0.141847 -0.09333 0)
(-0.118325 -0.114281 0)
(-0.0857004 -0.119777 0)
(-0.0489537 -0.104234 0)
(-0.0175038 -0.068086 0)
(-0.00232153 -0.0211188 0)
(-0.00186413 0.0255422 0)
(-0.0096117 0.0603103 0)
(-0.0233258 0.0814899 0)
(-0.0396279 0.0924638 0)
(-0.056796 0.0963167 0)
(-0.0742726 0.09529 0)
(-0.0919022 0.090654 0)
(-0.109681 0.0827689 0)
(-0.127546 0.0712359 0)
(-0.14515 0.0551102 0)
(-0.161632 0.0332076 0)
(-0.175432 0.00457832 0)
(-0.184209 -0.0307838 0)
(-0.184986 -0.0710122 0)
(-0.174663 -0.111418 0)
(-0.150994 -0.143974 0)
(-0.114055 -0.158023 0)
(-0.0683934 -0.143394 0)
(-0.0259233 -0.097084 0)
(-0.00380288 -0.0311201 0)
(-0.00207347 0.0308578 0)
(-0.010566 0.0722973 0)
(-0.0253749 0.0970493 0)
(-0.0426534 0.109619 0)
(-0.0605406 0.114064 0)
(-0.0785669 0.113285 0)
(-0.0967482 0.108892 0)
(-0.115288 0.101315 0)
(-0.13435 0.0899753 0)
(-0.153812 0.0735109 0)
(-0.173013 0.0500939 0)
(-0.190515 0.017963 0)
(-0.203922 -0.0237233 0)
(-0.209891 -0.0736962 0)
(-0.204452 -0.127204 0)
(-0.183798 -0.174847 0)
(-0.145777 -0.202388 0)
(-0.0929011 -0.193286 0)
(-0.0381477 -0.137351 0)
(-0.00634666 -0.0462042 0)
(-0.00236917 0.0367366 0)
(-0.0117601 0.0853338 0)
(-0.0276735 0.11358 0)
(-0.045622 0.127409 0)
(-0.0635765 0.132108 0)
(-0.0811791 0.131367 0)
(-0.0986288 0.1272 0)
(-0.116338 0.120134 0)
(-0.134713 0.109437 0)
(-0.153935 0.0933483 0)
(-0.173715 0.0693953 0)
(-0.193047 0.0349461 0)
(-0.209944 -0.0118635 0)
(-0.221259 -0.0707772 0)
(-0.222675 -0.137714 0)
(-0.209014 -0.202887 0)
(-0.175309 -0.249193 0)
(-0.120208 -0.252725 0)
(-0.0547674 -0.191245 0)
(-0.0105644 -0.0688654 0)
(-0.00286857 0.0433993 0)
(-0.0135067 0.0996001 0)
(-0.0306093 0.130919 0)
(-0.0487932 0.145254 0)
(-0.065869 0.14947 0)
(-0.0816631 0.148186 0)
(-0.0965844 0.143856 0)
(-0.111244 0.137134 0)
(-0.126289 0.127195 0)
(-0.142245 0.111987 0)
(-0.159349 0.0885299 0)
(-0.177328 0.0534301 0)
(-0.195105 0.00378139 0)
(-0.210439 -0.0614965 0)
(-0.219509 -0.139838 0)
(-0.216506 -0.222573 0)
(-0.193779 -0.291638 0)
(-0.14484 -0.316595 0)
(-0.0749624 -0.25893 0)
(-0.0170862 -0.102178 0)
(-0.00381835 0.0513531 0)
(-0.0164138 0.115502 0)
(-0.034892 0.148868 0)
(-0.0526579 0.162323 0)
(-0.0675111 0.164799 0)
(-0.0796642 0.161942 0)
(-0.0898215 0.156624 0)
(-0.0988033 0.149634 0)
(-0.10748 0.140137 0)
(-0.116728 0.12597 0)
(-0.127368 0.1039 0)
(-0.140033 0.0700654 0)
(-0.154904 0.0207232 0)
(-0.17126 -0.0466209 0)
(-0.186748 -0.131586 0)
(-0.196211 -0.228293 0)
(-0.190492 -0.320663 0)
(-0.158032 -0.375097 0)
(-0.0950278 -0.335853 0)
(-0.0260058 -0.148951 0)
(-0.0057171 0.0616859 0)
(-0.0215854 0.133797 0)
(-0.0416171 0.167091 0)
(-0.0577736 0.177375 0)
(-0.0683691 0.176266 0)
(-0.0744549 0.1704 0)
(-0.0772223 0.162934 0)
(-0.0777566 0.154732 0)
(-0.0771447 0.145013 0)
(-0.0765626 0.131687 0)
(-0.0773435 0.11158 0)
(-0.080965 0.0807627 0)
(-0.0888864 0.0350758 0)
(-0.102157 -0.0290903 0)
(-0.120625 -0.113676 0)
(-0.141304 -0.216807 0)
(-0.155761 -0.327691 0)
(-0.149263 -0.41536 0)
(-0.107515 -0.411333 0)
(-0.035797 -0.210175 0)
(-0.00951722 0.0766767 0)
(-0.0308374 0.15565 0)
(-0.0519692 0.184747 0)
(-0.0638014 0.188346 0)
(-0.0666078 0.181276 0)
(-0.0631172 0.170796 0)
(-0.055294 0.160006 0)
(-0.0445733 0.149673 0)
(-0.0322365 0.139045 0)
(-0.0196433 0.126223 0)
(-0.00842949 0.108344 0)
(-0.00062861 0.0817956 0)
(0.00134912 0.0425314 0)
(-0.00506201 -0.0135234 0)
(-0.0220221 -0.0900059 0)
(-0.0497976 -0.189117 0)
(-0.0834081 -0.307827 0)
(-0.108718 -0.424984 0)
(-0.102154 -0.470053 0)
(-0.0418684 -0.283459 0)
(-0.0168052 0.10123 0)
(-0.0463797 0.182077 0)
(-0.0650068 0.198993 0)
(-0.0655391 0.190883 0)
(-0.0537528 0.175343 0)
(-0.0351603 0.159101 0)
(-0.0126164 0.144492 0)
(0.0121789 0.131818 0)
(0.0379236 0.120203 0)
(0.063329 0.107937 0)
(0.0867944 0.0926109 0)
(0.10616 0.0712181 0)
(0.118582 0.0403071 0)
(0.120567 -0.00387813 0)
(0.108204 -0.065458 0)
(0.0779859 -0.149293 0)
(0.0294834 -0.260364 0)
(-0.0287605 -0.393867 0)
(-0.0680699 -0.493314 0)
(-0.0354955 -0.359775 0)
(-0.0289103 0.145217 0)
(-0.0664838 0.209447 0)
(-0.0660904 0.198003 0)
(-0.0382885 0.173026 0)
(-0.000283093 0.14895 0)
(0.0405307 0.128389 0)
(0.0816296 0.111734 0)
(0.121872 0.0984104 0)
(0.160552 0.0872565 0)
(0.196965 0.0767352 0)
(0.230008 0.0649816 0)
(0.257873 0.0498045 0)
(0.27782 0.0287215 0)
(0.286063 -0.00103631 0)
(0.277736 -0.0427901 0)
(0.247068 -0.101586 0)
(0.188156 -0.18722 0)
(0.099337 -0.313392 0)
(0.00697222 -0.455146 0)
(-0.0022301 -0.410774 0)
(-0.0316904 0.21445 0)
(-0.0474233 0.213871 0)
(0.022048 0.157057 0)
(0.102177 0.120099 0)
(0.173494 0.0950886 0)
(0.235892 0.0765322 0)
(0.291136 0.0627301 0)
(0.340368 0.0525139 0)
(0.384395 0.0446548 0)
(0.423654 0.037943 0)
(0.457936 0.0311739 0)
(0.486154 0.0230864 0)
(0.506147 0.0123377 0)
(0.514523 -0.0025219 0)
(0.506407 -0.0232407 0)
(0.475125 -0.0527474 0)
(0.411148 -0.0988187 0)
(0.300791 -0.184572 0)
(0.153603 -0.324478 0)
(0.0910244 -0.368751 0)
(0.260528 0.131888 0)
(0.320461 0.116568 0)
(0.440243 0.0781627 0)
(0.539921 0.0534161 0)
(0.609252 0.0380249 0)
(0.659862 0.0276777 0)
(0.69946 0.020565 0)
(0.731585 0.015686 0)
(0.758169 0.0122698 0)
(0.780348 0.00969752 0)
(0.798511 0.00745851 0)
(0.812262 0.00509995 0)
(0.820406 0.00219828 0)
(0.820933 -0.00165657 0)
(0.810834 -0.00690825 0)
(0.785721 -0.0142883 0)
(0.737496 -0.0258063 0)
(0.651193 -0.0483087 0)
(0.489449 -0.103399 0)
(0.357747 -0.149612 0)
)
;

boundaryField
{
    movingWall
    {
        type            fixedValue;
        value           uniform (1 0 0);
    }
    fixedWalls
    {
        type            noSlip;
    }
    frontAndBack
    {
        type            empty;
    }
}


// ************************************************************************* //
