/*--------------------------------*- C++ -*----------------------------------*\
  =========                 |
  \\      /  F ield         | OpenFOAM: The Open Source CFD Toolbox
   \\    /   O peration     | Website:  https://openfoam.org
    \\  /    A nd           | Version:  6
     \\/     M anipulation  |
\*---------------------------------------------------------------------------*/
FoamFile
{
    version     2.0;
    format      ascii;
    class       volScalarField;
    location    "0.1";
    object      p;
}
// * * * * * * * * * * * * * * * * * * * * * * * * * * * * * * * * * * * * * //

dimensions      [0 2 -2 0 0 0 0];

internalField   nonuniform List<scalar> 
400
(
-4.63435e-06
-0.00571823
-0.0127883
-0.018167
-0.0201285
-0.017915
-0.0114701
-0.00123567
0.0120009
0.0272098
0.0431961
0.0586728
0.0723466
0.0830254
0.0897571
0.0919991
0.0898202
0.0841132
0.076816
0.0711099
0.00565363
-0.000224047
-0.00576347
-0.00944959
-0.0104635
-0.00827639
-0.0028154
0.00560613
0.0163953
0.0287531
0.041736
0.0543205
0.0654807
0.0742821
0.0799928
0.0822127
0.0810203
0.0770515
0.0713129
0.0654685
0.0131346
0.00498182
-0.00100332
-0.00438242
-0.00519115
-0.00315894
0.00171278
0.00912729
0.0185774
0.0293906
0.0407684
0.0518361
0.0617068
0.0695604
0.0747347
0.0768293
0.0758357
0.0721291
0.065887
0.0577543
0.0198582
0.0085976
0.00117138
-0.00267434
-0.00368497
-0.00182075
0.00280893
0.00986259
0.0188476
0.0291429
0.0400158
0.050654
0.0602146
0.0678899
0.072984
0.0750067
0.0738137
0.0695524
0.0617362
0.0504053
0.0241601
0.00964584
0.000503224
-0.00402501
-0.00529498
-0.00346828
0.0012342
0.00840446
0.017533
0.0280133
0.039137
0.050108
0.0600761
0.068189
0.0736587
0.0758543
0.0744679
0.0694357
0.0597039
0.0449174
0.0248171
0.00702501
-0.00389522
-0.00910401
-0.0105121
-0.00846456
-0.00329509
0.00450951
0.0144036
0.0257715
0.0379021
0.049984
0.0611216
0.0703746
0.0768136
0.0796176
0.0782796
0.0725173
0.0607455
0.0423234
0.0207611
-0.000351502
-0.0130076
-0.0187411
-0.020015
-0.0173617
-0.0112356
-0.00221253
0.00911442
0.0221088
0.0360432
0.0500735
0.0632351
0.0744647
0.0826451
0.0867094
0.0858954
0.0796571
0.065836
0.0435295
0.0108832
-0.0136404
-0.0279037
-0.0338499
-0.0345551
-0.0307715
-0.0230936
-0.0121973
0.00127442
0.0166664
0.0332392
0.0501169
0.0662592
0.0804586
0.0913673
0.0976057
0.0980725
0.0918618
0.0761042
0.0495716
-0.00611828
-0.0341975
-0.0498353
-0.0554919
-0.0549941
-0.0493827
-0.0394273
-0.0259158
-0.0095346
0.00906136
0.029145
0.0498337
0.0700276
0.0883724
0.103256
0.112909
0.115774
0.110424
0.0930207
0.0618411
-0.0318782
-0.0637033
-0.0803084
-0.0848897
-0.08227
-0.0738957
-0.0607645
-0.0437874
-0.023675
-0.00104266
0.023446
0.0489564
0.0743772
0.0982357
0.118642
0.133361
0.140228
0.13705
0.118597
0.0823212
-0.0685548
-0.104329
-0.121163
-0.123413
-0.117314
-0.104897
-0.0874569
-0.0660306
-0.0413131
-0.0138125
0.015955
0.0472957
0.0791805
0.110094
0.137899
0.159841
0.172975
0.174004
0.155644
0.113906
-0.119172
-0.159002
-0.174675
-0.172533
-0.160909
-0.142667
-0.119467
-0.0924511
-0.0622206
-0.0290699
0.0067574
0.0448489
0.0844086
0.124026
0.161427
0.193348
0.215915
0.224292
0.208148
0.160911
-0.188311
-0.231849
-0.243666
-0.233699
-0.21344
-0.186884
-0.156074
-0.122166
-0.0855291
-0.0460799
-0.00361492
0.0419278
0.090205
0.140156
0.189607
0.234942
0.271304
0.291861
0.281832
0.229996
-0.283608
-0.328944
-0.331563
-0.308035
-0.274469
-0.23619
-0.195486
-0.153293
-0.109484
-0.0633615
-0.0140451
0.0392445
0.0969051
0.158585
0.222637
0.28551
0.341589
0.381748
0.385039
0.331991
-0.418915
-0.45945
-0.442133
-0.39558
-0.341935
-0.287541
-0.234386
-0.182656
-0.13129
-0.0786318
-0.0228481
0.0378295
0.104874
0.17911
0.26008
0.34514
0.428746
0.499845
0.529912
0.485445
-0.620015
-0.636769
-0.578532
-0.494026
-0.411117
-0.335538
-0.267626
-0.205771
-0.147274
-0.0890783
-0.0281015
0.0386647
0.114089
0.200699
0.300141
0.412125
0.533052
0.651834
0.733164
0.72221
-0.935034
-0.878845
-0.741574
-0.597777
-0.474353
-0.372643
-0.288813
-0.217645
-0.153767
-0.0922209
-0.0284399
0.0419761
0.123516
0.220917
0.339057
0.482183
0.65182
0.841128
1.01579
1.09678
-1.47419
-1.20847
-0.920452
-0.691107
-0.517301
-0.387597
-0.290068
-0.213278
-0.147992
-0.0870189
-0.0243379
0.0457096
0.129168
0.233254
0.367225
0.542669
0.770931
1.05914
1.40538
1.72777
-2.53138
-1.63899
-1.04566
-0.7106
-0.49566
-0.352062
-0.25445
-0.183455
-0.125993
-0.0733766
-0.0190312
0.0430225
0.11941
0.21892
0.354899
0.547979
0.826164
1.23805
1.92099
2.9151
-4.34933
-2.04814
-0.97372
-0.562961
-0.358288
-0.240754
-0.170623
-0.124117
-0.0876275
-0.0534699
-0.0164425
0.0280023
0.0850392
0.162205
0.272864
0.442334
0.717843
1.2257
2.41429
4.82993
)
;

boundaryField
{
    movingWall
    {
        type            zeroGradient;
    }
    fixedWalls
    {
        type            zeroGradient;
    }
    frontAndBack
    {
        type            empty;
    }
}


// ************************************************************************* //
