/*--------------------------------*- C++ -*----------------------------------*\
  =========                 |
  \\      /  F ield         | OpenFOAM: The Open Source CFD Toolbox
   \\    /   O peration     | Website:  https://openfoam.org
    \\  /    A nd           | Version:  6
     \\/     M anipulation  |
\*---------------------------------------------------------------------------*/
FoamFile
{
    version     2.0;
    format      ascii;
    class       surfaceScalarField;
    location    "0.1";
    object      phi;
}
// * * * * * * * * * * * * * * * * * * * * * * * * * * * * * * * * * * * * * //

dimensions      [0 3 -1 0 0 0 0];

internalField   nonuniform List<scalar> 
760
(
1.41212e-08
-1.40989e-08
-2.19851e-08
3.61066e-08
-1.13186e-07
9.12012e-08
-2.43072e-07
1.29886e-07
-3.92077e-07
1.49004e-07
-5.41709e-07
1.49632e-07
-6.76061e-07
1.34352e-07
-7.82384e-07
1.06323e-07
-8.51221e-07
6.88374e-08
-8.76463e-07
2.52419e-08
-8.55486e-07
-2.09773e-08
-7.89401e-07
-6.60843e-08
-6.8336e-07
-1.06041e-07
-5.46789e-07
-1.36571e-07
-3.934e-07
-1.53388e-07
-2.4074e-07
-1.5266e-07
-1.08934e-07
-1.31806e-07
-1.83257e-08
-9.06079e-08
1.55248e-08
-3.38504e-08
1.55247e-08
-3.38722e-08
1.9773e-08
-1.78546e-07
1.8078e-07
-4.29473e-07
3.42129e-07
-7.56402e-07
4.56814e-07
-1.12023e-06
5.12835e-07
-1.48133e-06
5.10727e-07
-1.80392e-06
4.56941e-07
-2.0584e-06
3.60809e-07
-2.22249e-06
2.32928e-07
-2.28184e-06
8.4585e-08
-2.23054e-06
-7.22709e-08
-2.07172e-06
-2.24907e-07
-1.81794e-06
-3.59825e-07
-1.49139e-06
-4.63124e-07
-1.12337e-06
-5.21408e-07
-7.52589e-07
-5.23437e-07
-4.21686e-07
-4.6271e-07
-1.71308e-07
-3.40986e-07
-3.05866e-08
-1.74572e-07
-1.50618e-08
-9.13329e-08
1.11105e-07
-3.53332e-07
4.42779e-07
-7.56648e-07
7.45445e-07
-1.25532e-06
9.55484e-07
-1.7958e-06
1.05332e-06
-2.32453e-06
1.03946e-06
-2.79298e-06
9.25385e-07
-3.16069e-06
7.28524e-07
-3.39708e-06
4.69314e-07
-3.48243e-06
1.69932e-07
-3.4087e-06
-1.45994e-07
-3.18025e-06
-4.53357e-07
-2.81434e-06
-7.25742e-07
-2.34122e-06
-9.36244e-07
-1.80334e-06
-1.05928e-06
-1.253e-06
-1.07378e-06
-7.47857e-07
-9.67852e-07
-3.4402e-07
-7.44823e-07
-8.6679e-08
-4.31913e-07
-1.01741e-07
-1.43775e-07
2.54881e-07
-5.20296e-07
8.193e-07
-1.07105e-06
1.2962e-06
-1.73044e-06
1.61487e-06
-2.43034e-06
1.75322e-06
-3.1057e-06
1.71482e-06
-3.69879e-06
1.51847e-06
-4.16197e-06
1.1917e-06
-4.45934e-06
7.66683e-07
-4.56773e-06
2.78322e-07
-4.47751e-06
-2.36211e-07
-4.19337e-06
-7.37501e-07
-3.73498e-06
-1.18413e-06
-3.13738e-06
-1.53385e-06
-2.4503e-06
-1.74636e-06
-1.73612e-06
-1.78796e-06
-1.06551e-06
-1.63846e-06
-5.10896e-07
-1.29944e-06
-1.38196e-07
-8.04613e-07
-2.39937e-07
-1.91846e-07
4.46727e-07
-6.78936e-07
1.30639e-06
-1.3735e-06
1.99076e-06
-2.188e-06
2.42937e-06
-3.03875e-06
2.60397e-06
-3.84991e-06
2.52598e-06
-4.55646e-06
2.22502e-06
-5.10586e-06
1.74111e-06
-5.45896e-06
1.11978e-06
-5.59041e-06
4.09768e-07
-5.48919e-06
-3.37434e-07
-5.15938e-06
-1.06731e-06
-4.62115e-06
-1.72235e-06
-3.91173e-06
-2.24328e-06
-3.08562e-06
-2.57247e-06
-2.21358e-06
-2.66e-06
-1.37926e-06
-2.47277e-06
-6.7347e-07
-2.00523e-06
-1.86366e-07
-1.29172e-06
-4.26303e-07
-2.38091e-07
6.84819e-07
-8.34098e-07
1.9024e-06
-1.67093e-06
2.82759e-06
-2.63761e-06
3.39605e-06
-3.63402e-06
3.60038e-06
-4.57395e-06
3.46592e-06
-5.38652e-06
3.03758e-06
-6.0162e-06
2.37079e-06
-6.42231e-06
1.52589e-06
-6.5784e-06
5.65854e-07
-6.47216e-06
-4.43675e-07
-6.10609e-06
-1.43338e-06
-5.49894e-06
-2.3295e-06
-4.68764e-06
-3.05458e-06
-3.72917e-06
-3.53093e-06
-2.70127e-06
-3.68791e-06
-1.70088e-06
-3.47316e-06
-8.39427e-07
-2.86668e-06
-2.34693e-07
-1.89645e-06
-6.60996e-07
-2.85042e-07
9.69861e-07
-9.91371e-07
2.60873e-06
-1.97083e-06
3.80705e-06
-3.08731e-06
4.51253e-06
-4.22369e-06
4.73676e-06
-5.28429e-06
4.52652e-06
-6.19421e-06
3.9475e-06
-6.89721e-06
3.0738e-06
-7.35313e-06
1.9818e-06
-7.53569e-06
7.48418e-07
-7.43152e-06
-5.47847e-07
-7.0405e-06
-1.8244e-06
-6.37778e-06
-2.99222e-06
-5.47709e-06
-3.95526e-06
-4.39483e-06
-4.6132e-06
-3.21353e-06
-4.86921e-06
-2.04308e-06
-4.64361e-06
-1.01766e-06
-3.8921e-06
-2.86885e-07
-2.62723e-06
-9.4788e-07
-3.34982e-07
1.30484e-06
-1.15585e-06
3.4296e-06
-2.27911e-06
4.93032e-06
-3.54101e-06
5.77442e-06
-4.80735e-06
6.00311e-06
-5.97478e-06
5.69394e-06
-6.96742e-06
4.94015e-06
-7.73163e-06
3.83801e-06
-8.23062e-06
2.48079e-06
-8.44023e-06
9.58022e-07
-8.34653e-06
-6.41548e-07
-7.9458e-06
-2.22513e-06
-7.24701e-06
-3.69101e-06
-6.27683e-06
-4.92544e-06
-5.08655e-06
-5.80347e-06
-3.75955e-06
-6.1962e-06
-2.41676e-06
-5.9864e-06
-1.21672e-06
-5.09215e-06
-3.46547e-07
-3.4974e-06
-1.29443e-06
-3.90134e-07
1.69498e-06
-1.33211e-06
4.37158e-06
-2.59944e-06
6.19764e-06
-3.99713e-06
7.17211e-06
-5.37453e-06
7.3805e-06
-6.62411e-06
6.94353e-06
-7.67386e-06
5.9899e-06
-8.47763e-06
4.64177e-06
-9.00616e-06
3.00932e-06
-9.24019e-06
1.19206e-06
-9.16643e-06
-7.15315e-07
-8.77669e-06
-2.61487e-06
-8.07082e-06
-4.39689e-06
-7.06336e-06
-5.9329e-06
-5.79397e-06
-7.07287e-06
-4.34015e-06
-7.65002e-06
-2.82922e-06
-7.49733e-06
-1.44431e-06
-6.47706e-06
-4.17288e-07
-4.52442e-06
-1.71171e-06
-4.53271e-07
2.14825e-06
-1.52503e-06
5.44334e-06
-2.93341e-06
7.60602e-06
-4.4475e-06
8.68621e-06
-5.90237e-06
8.83537e-06
-7.19246e-06
8.23362e-06
-8.257e-06
7.05444e-06
-9.06432e-06
5.44909e-06
-9.59836e-06
3.54335e-06
-9.84868e-06
1.44238e-06
-9.8045e-06
-7.59491e-07
-9.45285e-06
-2.96652e-06
-8.78133e-06
-5.06841e-06
-7.78629e-06
-6.92794e-06
-6.48681e-06
-8.37234e-06
-4.94403e-06
-9.1928e-06
-3.28263e-06
-9.15873e-06
-1.70744e-06
-8.05225e-06
-5.03204e-07
-5.72866e-06
-2.21492e-06
-5.28836e-07
2.67708e-06
-1.7413e-06
6.6558e-06
-3.28086e-06
9.14558e-06
-4.87563e-06
1.0281e-05
-6.35193e-06
1.03117e-05
-7.6164e-06
9.4981e-06
-8.63035e-06
8.06838e-06
-9.38585e-06
6.20459e-06
-9.88709e-06
4.04459e-06
-1.01373e-05
1.69262e-06
-1.01311e-05
-7.65755e-07
-9.85092e-06
-3.24666e-06
-9.26977e-06
-5.64956e-06
-8.35926e-06
-7.83845e-06
-7.10683e-06
-9.62478e-06
-5.54216e-06
-1.07575e-05
-3.77162e-06
-1.09293e-05
-2.01263e-06
-9.81124e-06
-6.09765e-07
-7.13152e-06
-2.82468e-06
-6.24792e-07
3.30188e-06
-1.99121e-06
8.02222e-06
-3.63898e-06
1.07933e-05
-5.25228e-06
1.18943e-05
-6.66099e-06
1.17204e-05
-7.80057e-06
1.06377e-05
-8.66923e-06
8.93704e-06
-9.29395e-06
6.82932e-06
-9.70685e-06
4.45748e-06
-9.92998e-06
1.91575e-06
-9.96643e-06
-7.29302e-07
-9.79608e-06
-3.41702e-06
-9.37608e-06
-6.06957e-06
-8.6481e-06
-8.56642e-06
-7.55601e-06
-1.07169e-05
-6.07843e-06
-1.2235e-05
-4.27861e-06
-1.27291e-05
-2.36582e-06
-1.1724e-05
-7.45282e-07
-8.75206e-06
-3.56997e-06
-7.55627e-07
4.0575e-06
-2.28997e-06
9.55656e-06
-3.99757e-06
1.2501e-05
-5.52477e-06
1.34215e-05
-6.73023e-06
1.29258e-05
-7.60364e-06
1.15111e-05
-8.1988e-06
9.5322e-06
-8.58901e-06
7.21952e-06
-8.84051e-06
4.70899e-06
-8.99789e-06
2.07314e-06
-9.07592e-06
-6.51273e-07
-9.05476e-06
-3.43818e-06
-8.87801e-06
-6.24631e-06
-8.4559e-06
-8.98854e-06
-7.67928e-06
-1.14935e-05
-6.45371e-06
-1.34606e-05
-4.76368e-06
-1.44191e-05
-2.77043e-06
-1.37173e-05
-9.23221e-07
-1.05993e-05
-4.49319e-06
-9.46744e-07
5.00425e-06
-2.65515e-06
1.1265e-05
-4.32384e-06
1.41696e-05
-5.59257e-06
1.46902e-05
-6.39631e-06
1.37296e-05
-6.81477e-06
1.19295e-05
-6.97695e-06
9.69437e-06
-7.00984e-06
7.25242e-06
-7.01497e-06
4.71412e-06
-7.05903e-06
2.11719e-06
-7.16968e-06
-5.4062e-07
-7.33171e-06
-3.27615e-06
-7.48203e-06
-6.09599e-06
-7.50567e-06
-8.96489e-06
-7.23956e-06
-1.17596e-05
-6.49821e-06
-1.4202e-05
-5.14319e-06
-1.57741e-05
-3.21966e-06
-1.56408e-05
-1.16506e-06
-1.26539e-05
-5.65825e-06
-1.238e-06
6.24225e-06
-3.08982e-06
1.31168e-05
-4.52117e-06
1.5601e-05
-5.25506e-06
1.54241e-05
-5.38299e-06
1.38575e-05
-5.11643e-06
1.1663e-05
-4.67139e-06
9.24933e-06
-4.22424e-06
6.80526e-06
-3.90203e-06
4.3919e-06
-3.78536e-06
2.00052e-06
-3.91203e-06
-4.13944e-07
-4.27613e-06
-2.91206e-06
-4.82044e-06
-5.55168e-06
-5.42301e-06
-8.36232e-06
-5.88329e-06
-1.12993e-05
-5.92415e-06
-1.41611e-05
-5.24368e-06
-1.64546e-05
-3.67097e-06
-1.72135e-05
-1.49982e-06
-1.4825e-05
-7.15807e-06
-1.67218e-06
7.91443e-06
-3.51802e-06
1.49626e-05
-4.32735e-06
1.64103e-05
-4.10814e-06
1.52049e-05
-3.21979e-06
1.29692e-05
-2.03277e-06
1.0476e-05
-8.35611e-07
8.05218e-06
1.73863e-07
5.79579e-06
8.69622e-07
3.69614e-06
1.17601e-06
1.69413e-06
1.05374e-06
-2.91669e-07
4.96142e-07
-2.35446e-06
-4.62577e-07
-4.59296e-06
-1.72551e-06
-7.09939e-06
-3.09776e-06
-9.92707e-06
-4.24838e-06
-1.30105e-05
-4.7058e-06
-1.59972e-05
-3.97015e-06
-1.79492e-05
-1.94224e-06
-1.68529e-05
-9.1003e-06
-2.22317e-06
1.01376e-05
-3.59086e-06
1.63303e-05
-3.08659e-06
1.5906e-05
-1.35951e-06
1.34778e-05
8.74242e-07
1.07354e-05
3.12499e-06
8.22522e-06
5.10168e-06
6.07549e-06
6.64714e-06
4.25033e-06
7.68099e-06
2.66229e-06
8.16053e-06
1.21459e-06
8.05889e-06
-1.90029e-07
7.35714e-06
-1.65272e-06
6.04991e-06
-3.28573e-06
4.16861e-06
-5.21809e-06
1.8309e-06
-7.58935e-06
-6.77282e-07
-1.05023e-05
-2.80002e-06
-1.38745e-05
-3.66091e-06
-1.70883e-05
-2.40239e-06
-1.81115e-05
-1.15027e-05
-2.54702e-06
1.26846e-05
-2.18211e-06
1.59654e-05
7.11451e-07
1.30125e-05
4.45816e-06
9.7311e-06
8.11617e-06
7.07739e-06
1.12783e-05
5.06305e-06
1.38002e-05
3.55366e-06
1.56546e-05
2.39592e-06
1.68551e-05
1.46173e-06
1.74172e-05
6.52542e-07
1.73394e-05
-1.12277e-07
1.65961e-05
-9.09427e-07
1.51369e-05
-1.82651e-06
1.28985e-05
-2.97963e-06
9.8425e-06
-4.5334e-06
6.04865e-06
-6.70846e-06
1.90496e-06
-9.73076e-06
-1.55745e-06
-1.36259e-05
-2.42924e-06
-1.72397e-05
-1.39319e-05
-8.43984e-07
1.35286e-05
4.06515e-06
1.10563e-05
1.02916e-05
6.78607e-06
1.57863e-05
4.23642e-06
2.01473e-05
2.71633e-06
2.34433e-05
1.76704e-06
2.5842e-05
1.15496e-06
2.74994e-05
7.38536e-07
2.85297e-05
4.31417e-07
2.90013e-05
1.80956e-07
2.89376e-05
-4.85843e-08
2.8316e-05
-2.87825e-07
2.70619e-05
-5.7241e-07
2.50385e-05
-9.56203e-07
2.20384e-05
-1.53328e-06
1.78047e-05
-2.47482e-06
1.21627e-05
-4.08876e-06
5.45802e-06
-6.92115e-06
-1.9487e-07
-1.15868e-05
-1.41268e-05
1.35286e-05
2.45849e-05
3.13709e-05
3.56074e-05
3.83237e-05
4.00907e-05
4.12457e-05
4.19842e-05
4.24156e-05
4.25966e-05
4.2548e-05
4.22602e-05
4.16878e-05
4.07316e-05
3.91983e-05
3.67235e-05
3.26347e-05
2.57136e-05
1.41268e-05
)
;

boundaryField
{
    movingWall
    {
        type            calculated;
        value           uniform 0;
    }
    fixedWalls
    {
        type            calculated;
        value           uniform 0;
    }
    frontAndBack
    {
        type            empty;
        value           nonuniform 0();
    }
}


// ************************************************************************* //
