/*--------------------------------*- C++ -*----------------------------------*\
  =========                 |
  \\      /  F ield         | OpenFOAM: The Open Source CFD Toolbox
   \\    /   O peration     | Website:  https://openfoam.org
    \\  /    A nd           | Version:  6
     \\/     M anipulation  |
\*---------------------------------------------------------------------------*/
FoamFile
{
    version     2.0;
    format      ascii;
    class       volVectorField;
    location    "0.1";
    object      U;
}
// * * * * * * * * * * * * * * * * * * * * * * * * * * * * * * * * * * * * * //

dimensions      [0 1 -1 0 0 0 0];

internalField   nonuniform List<vector> 
400
(
(0.000246565 -0.000243199 0)
(0.000134735 0.000116797 0)
(-0.00116649 0.000565743 0)
(-0.00344722 0.000882641 0)
(-0.00631355 0.00104143 0)
(-0.00937233 0.00105686 0)
(-0.0122739 0.000953286 0)
(-0.0147291 0.000756843 0)
(-0.0165147 0.000492447 0)
(-0.0174744 0.00018402 0)
(-0.0175198 -0.000144073 0)
(-0.0166349 -0.00046555 0)
(-0.0148815 -0.000751305 0)
(-0.0124053 -0.00096942 0)
(-0.00943916 -0.0010864 0)
(-0.00630029 -0.00107032 0)
(-0.00337392 -0.000896821 0)
(-0.0010803 -0.000558688 0)
(0.00018825 -9.62539e-05 0)
(0.000260775 0.000255506 0)
(-8.35059e-05 -0.000161999 0)
(-0.00160237 0.00163519 0)
(-0.00563413 0.00358726 0)
(-0.011596 0.0049888 0)
(-0.0186931 0.00568852 0)
(-0.0261207 0.00570439 0)
(-0.0331128 0.00512147 0)
(-0.0390068 0.00405342 0)
(-0.0432794 0.00262371 0)
(-0.0455614 0.000960614 0)
(-0.0456481 -0.000801244 0)
(-0.0435095 -0.00251799 0)
(-0.0393009 -0.0040355 0)
(-0.0333708 -0.00519264 0)
(-0.0262596 -0.00583087 0)
(-0.0186799 -0.00581292 0)
(-0.0114634 -0.00505375 0)
(-0.00546699 -0.00356519 0)
(-0.0014893 -0.00155357 0)
(-4.97241e-05 0.000219353 0)
(-0.000531003 0.00108188 0)
(-0.00368127 0.00567734 0)
(-0.0104794 0.0101179 0)
(-0.0197843 0.0132656 0)
(-0.0304453 0.0147857 0)
(-0.0413866 0.0146784 0)
(-0.0515762 0.0131128 0)
(-0.0601113 0.0103455 0)
(-0.0662745 0.00667465 0)
(-0.0695588 0.00242149 0)
(-0.0696836 -0.00207226 0)
(-0.0666091 -0.00644296 0)
(-0.0605498 -0.0103069 0)
(-0.0519823 -0.0132717 0)
(-0.0416413 -0.0149631 0)
(-0.0304917 -0.0150719 0)
(-0.0196517 -0.0134264 0)
(-0.0102737 -0.0100871 0)
(-0.00352743 -0.00550415 0)
(-0.000481343 -0.000943674 0)
(-0.000927979 0.00344552 0)
(-0.00564446 0.0120949 0)
(-0.0151515 0.019716 0)
(-0.027644 0.024935 0)
(-0.0415761 0.0273064 0)
(-0.0556308 0.0268505 0)
(-0.0685759 0.0238551 0)
(-0.0793448 0.0187584 0)
(-0.0870951 0.0120775 0)
(-0.0912326 0.00437561 0)
(-0.0914258 -0.00374617 0)
(-0.087622 -0.0116497 0)
(-0.0800622 -0.0186649 0)
(-0.0692937 -0.0241105 0)
(-0.0561708 -0.0273407 0)
(-0.0418322 -0.0278236 0)
(-0.0276216 -0.0252573 0)
(-0.0149684 -0.0197129 0)
(-0.00546992 -0.0118251 0)
(-0.000864297 -0.00320075 0)
(-0.00127811 0.00681085 0)
(-0.0074798 0.0207459 0)
(-0.0196304 0.0321876 0)
(-0.0352248 0.0397017 0)
(-0.052285 0.0428531 0)
(-0.069251 0.0417649 0)
(-0.08472 0.0369015 0)
(-0.0975066 0.028925 0)
(-0.10669 0.0186042 0)
(-0.111624 0.00677167 0)
(-0.111942 -0.00568793 0)
(-0.107572 -0.017837 0)
(-0.09875 -0.0286896 0)
(-0.086047 -0.0372384 0)
(-0.0703826 -0.0425172 0)
(-0.053023 -0.0437102 0)
(-0.0355161 -0.040311 0)
(-0.0195886 -0.0323108 0)
(-0.00732805 -0.0204192 0)
(-0.00120646 -0.00644833 0)
(-0.00160816 0.0111116 0)
(-0.00926128 0.0315776 0)
(-0.0240302 0.0475044 0)
(-0.0426876 0.0575251 0)
(-0.0627952 0.0613481 0)
(-0.0825446 0.0593089 0)
(-0.100383 0.0521278 0)
(-0.115044 0.0407439 0)
(-0.125566 0.0262086 0)
(-0.131282 0.00963834 0)
(-0.131803 -0.00779268 0)
(-0.127027 -0.0248425 0)
(-0.117158 -0.0401971 0)
(-0.102742 -0.0524939 0)
(-0.0847126 -0.0603938 0)
(-0.0644226 -0.0627158 0)
(-0.0436104 -0.0586402 0)
(-0.0243256 -0.0479523 0)
(-0.00921147 -0.0313105 0)
(-0.00154239 -0.0106491 0)
(-0.00194394 0.0163366 0)
(-0.0110725 0.0445906 0)
(-0.0284865 0.0656662 0)
(-0.0501929 0.0783742 0)
(-0.0732661 0.0827139 0)
(-0.0956533 0.0793661 0)
(-0.115682 0.0694073 0)
(-0.132049 0.0541152 0)
(-0.1438 0.0348515 0)
(-0.15028 0.0130183 0)
(-0.151095 -0.00993422 0)
(-0.146105 -0.0324765 0)
(-0.135448 -0.0529732 0)
(-0.119593 -0.0696892 0)
(-0.0994239 -0.080857 0)
(-0.0763217 -0.0848304 0)
(-0.0521854 -0.0803336 0)
(-0.0294029 -0.066778 0)
(-0.0112471 -0.0446182 0)
(-0.001908 -0.0158425 0)
(-0.00230868 0.022523 0)
(-0.0129921 0.0598431 0)
(-0.0331207 0.0866942 0)
(-0.0578517 0.102193 0)
(-0.0837417 0.106811 0)
(-0.108515 0.101738 0)
(-0.130434 0.0885277 0)
(-0.148223 0.0688662 0)
(-0.161001 0.0444468 0)
(-0.168177 0.0169424 0)
(-0.169377 -0.0119581 0)
(-0.164419 -0.040482 0)
(-0.153337 -0.0667054 0)
(-0.136459 -0.0885223 0)
(-0.114528 -0.103688 0)
(-0.0888649 -0.109976 0)
(-0.0614606 -0.105471 0)
(-0.0350306 -0.088987 0)
(-0.0135613 -0.0605628 0)
(-0.00233863 -0.0221423 0)
(-0.00272622 0.0297525 0)
(-0.0150971 0.0774457 0)
(-0.0380337 0.110613 0)
(-0.0657048 0.12886 0)
(-0.0941153 0.133372 0)
(-0.120818 0.126064 0)
(-0.144098 0.109111 0)
(-0.162814 0.0846803 0)
(-0.17625 0.0548076 0)
(-0.183951 0.0213995 0)
(-0.185602 -0.0136841 0)
(-0.180986 -0.0485065 0)
(-0.169997 -0.0809249 0)
(-0.152735 -0.108497 0)
(-0.129689 -0.128472 0)
(-0.101973 -0.137919 0)
(-0.0715441 -0.134062 0)
(-0.041385 -0.114806 0)
(-0.01628 -0.0794588 0)
(-0.00287209 -0.029734 0)
(-0.00322881 0.0381545 0)
(-0.0174818 0.097553 0)
(-0.0433199 0.137408 0)
(-0.0737152 0.15811 0)
(-0.104095 0.161906 0)
(-0.131938 0.151714 0)
(-0.155704 0.130507 0)
(-0.174532 0.101004 0)
(-0.188002 0.0655756 0)
(-0.19589 0.0262933 0)
(-0.198005 -0.0149168 0)
(-0.194106 -0.0560763 0)
(-0.183916 -0.0949425 0)
(-0.167219 -0.128822 0)
(-0.144093 -0.154466 0)
(-0.115244 -0.168137 0)
(-0.0823797 -0.165928 0)
(-0.0485984 -0.144418 0)
(-0.0195401 -0.101694 0)
(-0.00355629 -0.0388793 0)
(-0.00387146 0.0479266 0)
(-0.0202896 0.120364 0)
(-0.0490901 0.166975 0)
(-0.0817547 0.18943 0)
(-0.113144 0.191558 0)
(-0.140853 0.177648 0)
(-0.163739 0.151668 0)
(-0.181432 0.116947 0)
(-0.19397 0.0761442 0)
(-0.201481 0.0313909 0)
(-0.203969 -0.0154682 0)
(-0.201209 -0.0625844 0)
(-0.192733 -0.107792 0)
(-0.177924 -0.148301 0)
(-0.156274 -0.180452 0)
(-0.127815 -0.199638 0)
(-0.0936653 -0.20054 0)
(-0.0567443 -0.177859 0)
(-0.0235117 -0.127702 0)
(-0.004463 -0.0499333 0)
(-0.0047575 0.0593858 0)
(-0.0237634 0.146126 0)
(-0.0554886 0.199025 0)
(-0.0895499 0.2219 0)
(-0.120362 0.220933 0)
(-0.145974 0.202255 0)
(-0.165977 0.171022 0)
(-0.180754 0.131181 0)
(-0.190986 0.0855851 0)
(-0.197273 0.0362681 0)
(-0.1999 -0.0151952 0)
(-0.198707 -0.0673016 0)
(-0.193048 -0.1182 0)
(-0.181853 -0.165245 0)
(-0.163867 -0.204563 0)
(-0.138131 -0.230727 0)
(-0.104704 -0.236772 0)
(-0.0657943 -0.214837 0)
(-0.0284279 -0.157917 0)
(-0.00571211 -0.0633871 0)
(-0.00608374 0.0730709 0)
(-0.0283115 0.175142 0)
(-0.062666 0.232923 0)
(-0.0965186 0.253942 0)
(-0.124223 0.247855 0)
(-0.144859 0.223167 0)
(-0.159214 0.186348 0)
(-0.168715 0.141874 0)
(-0.17485 0.0926047 0)
(-0.178783 0.0402694 0)
(-0.181137 -0.0140466 0)
(-0.181879 -0.0694236 0)
(-0.180245 -0.124604 0)
(-0.174739 -0.177419 0)
(-0.163271 -0.224125 0)
(-0.143597 -0.25873 0)
(-0.114125 -0.272545 0)
(-0.0754985 -0.254439 0)
(-0.0346175 -0.192687 0)
(-0.00751345 -0.0799529 0)
(-0.00821379 0.0899219 0)
(-0.0345678 0.207693 0)
(-0.0706025 0.26735 0)
(-0.101344 0.28292 0)
(-0.122026 0.26905 0)
(-0.133684 0.237086 0)
(-0.138849 0.194733 0)
(-0.140237 0.146709 0)
(-0.140201 0.09558 0)
(-0.140453 0.0425134 0)
(-0.141957 -0.0121096 0)
(-0.144856 -0.068168 0)
(-0.148391 -0.125271 0)
(-0.150787 -0.18211 0)
(-0.149218 -0.235587 0)
(-0.140014 -0.2797 0)
(-0.119344 -0.304343 0)
(-0.0850746 -0.294621 0)
(-0.0424952 -0.232043 0)
(-0.010228 -0.100702 0)
(-0.0117567 0.111537 0)
(-0.043311 0.243743 0)
(-0.0784936 0.299633 0)
(-0.100969 0.304544 0)
(-0.108837 0.279838 0)
(-0.106359 0.239758 0)
(-0.0982871 0.19272 0)
(-0.0886348 0.143108 0)
(-0.0804384 0.0927552 0)
(-0.0757573 0.0419986 0)
(-0.0757674 -0.00963534 0)
(-0.0808059 -0.0629395 0)
(-0.0902908 -0.118567 0)
(-0.102498 -0.176421 0)
(-0.114257 -0.234685 0)
(-0.120728 -0.288272 0)
(-0.115547 -0.326639 0)
(-0.0924177 -0.331367 0)
(-0.0523277 -0.275156 0)
(-0.0144012 -0.12722 0)
(-0.0174622 0.140559 0)
(-0.0547221 0.28205 0)
(-0.0829541 0.324458 0)
(-0.0883984 0.31207 0)
(-0.0755689 0.273983 0)
(-0.0532015 0.22629 0)
(-0.0282098 0.176854 0)
(-0.00538325 0.128791 0)
(0.0121467 0.0826916 0)
(0.0224456 0.0378672 0)
(0.0244069 -0.00700779 0)
(0.0175634 -0.053557 0)
(0.00212423 -0.103436 0)
(-0.0207301 -0.157919 0)
(-0.0482721 -0.217053 0)
(-0.0754134 -0.277905 0)
(-0.0938288 -0.331377 0)
(-0.0921967 -0.357387 0)
(-0.0631828 -0.319157 0)
(-0.0205133 -0.161826 0)
(-0.0251917 0.181528 0)
(-0.06553 0.31788 0)
(-0.0734461 0.331279 0)
(-0.0483364 0.295143 0)
(-0.0059602 0.243887 0)
(0.0406903 0.192045 0)
(0.0839834 0.144741 0)
(0.119748 0.102728 0)
(0.145828 0.0649806 0)
(0.161127 0.0298329 0)
(0.165019 -0.00462934 0)
(0.157056 -0.0404932 0)
(0.136934 -0.0800338 0)
(0.104758 -0.12565 0)
(0.0617214 -0.17943 0)
(0.0114193 -0.241725 0)
(-0.0380831 -0.307628 0)
(-0.0717732 -0.360043 0)
(-0.0697254 -0.356685 0)
(-0.0275929 -0.208116 0)
(-0.0289668 0.238661 0)
(-0.0601682 0.336166 0)
(-0.0220561 0.30062 0)
(0.0503179 0.240007 0)
(0.127294 0.182761 0)
(0.196608 0.135193 0)
(0.253811 0.0972198 0)
(0.297619 0.066709 0)
(0.328115 0.041264 0)
(0.345715 0.0187449 0)
(0.35062 -0.00276962 0)
(0.34258 -0.0251881 0)
(0.320815 -0.0506682 0)
(0.284084 -0.0818998 0)
(0.231131 -0.122286 0)
(0.161861 -0.175518 0)
(0.0796397 -0.243337 0)
(-0.00332123 -0.31925 0)
(-0.053861 -0.368963 0)
(-0.0276575 -0.266976 0)
(0.00960731 0.280853 0)
(0.0212354 0.294812 0)
(0.138822 0.210917 0)
(0.264212 0.143409 0)
(0.364191 0.0971388 0)
(0.440118 0.0657489 0)
(0.496405 0.0442183 0)
(0.536459 0.0288742 0)
(0.562975 0.0171963 0)
(0.577803 0.00749274 0)
(0.581875 -0.00147631 0)
(0.575215 -0.0108195 0)
(0.556876 -0.021817 0)
(0.524767 -0.0363033 0)
(0.475484 -0.0572243 0)
(0.404301 -0.0893348 0)
(0.304852 -0.139666 0)
(0.173077 -0.216281 0)
(0.0427372 -0.311358 0)
(0.0201229 -0.298856 0)
(0.30097 0.145467 0)
(0.397764 0.127058 0)
(0.557515 0.0759182 0)
(0.67447 0.043678 0)
(0.743878 0.0255834 0)
(0.787083 0.0152766 0)
(0.815358 0.0092508 0)
(0.833789 0.00554326 0)
(0.845195 0.00305363 0)
(0.85117 0.00116769 0)
(0.852466 -0.000489858 0)
(0.849195 -0.00221396 0)
(0.840835 -0.00434607 0)
(0.826008 -0.00743851 0)
(0.80199 -0.0125463 0)
(0.763581 -0.0217692 0)
(0.699045 -0.0392265 0)
(0.583949 -0.0724611 0)
(0.417315 -0.127342 0)
(0.310264 -0.148799 0)
)
;

boundaryField
{
    movingWall
    {
        type            fixedValue;
        value           uniform (1 0 0);
    }
    fixedWalls
    {
        type            noSlip;
    }
    frontAndBack
    {
        type            empty;
    }
}


// ************************************************************************* //
