/*--------------------------------*- C++ -*----------------------------------*\
  =========                 |
  \\      /  F ield         | OpenFOAM: The Open Source CFD Toolbox
   \\    /   O peration     | Website:  https://openfoam.org
    \\  /    A nd           | Version:  6
     \\/     M anipulation  |
\*---------------------------------------------------------------------------*/
FoamFile
{
    version     2.0;
    format      ascii;
    class       surfaceScalarField;
    location    "0.09";
    object      phi;
}
// * * * * * * * * * * * * * * * * * * * * * * * * * * * * * * * * * * * * * //

dimensions      [0 3 -1 0 0 0 0];

internalField   nonuniform List<scalar> 
760
(
2.47539e-09
-2.47563e-09
-3.55442e-08
3.80197e-08
-1.08392e-07
7.28476e-08
-2.00772e-07
9.23799e-08
-2.99327e-07
9.85558e-08
-3.93831e-07
9.45036e-08
-4.76787e-07
8.29563e-08
-5.4272e-07
6.59323e-08
-5.87494e-07
4.47749e-08
-6.07932e-07
2.04372e-08
-6.01769e-07
-6.16212e-09
-5.67963e-07
-3.38063e-08
-5.07254e-07
-6.07093e-08
-4.22907e-07
-8.43471e-08
-3.21453e-07
-1.01454e-07
-2.13167e-07
-1.08286e-07
-1.11915e-07
-1.01251e-07
-3.41012e-08
-7.78137e-08
4.2081e-09
-3.83093e-08
4.20798e-09
-3.74558e-08
3.49802e-08
-1.5589e-07
1.56454e-07
-3.38679e-07
2.55637e-07
-5.59228e-07
3.12929e-07
-7.91366e-07
3.30694e-07
-1.01311e-06
3.16249e-07
-1.20727e-06
2.77115e-07
-1.36078e-06
2.1944e-07
-1.46378e-06
1.47776e-07
-1.50902e-06
6.56758e-08
-1.4918e-06
-2.33829e-08
-1.41054e-06
-1.15062e-07
-1.26787e-06
-2.03383e-07
-1.07193e-06
-2.80284e-07
-8.3766e-07
-3.35724e-07
-5.87296e-07
-3.5865e-07
-3.49468e-07
-3.3908e-07
-1.56009e-07
-2.71272e-07
-3.53006e-08
-1.59018e-07
-3.10926e-08
-7.59901e-08
1.1097e-07
-2.6894e-07
3.49404e-07
-5.44296e-07
5.30993e-07
-8.65429e-07
6.34061e-07
-1.19806e-06
6.63329e-07
-1.51324e-06
6.31425e-07
-1.78792e-06
5.518e-07
-2.00436e-06
4.35877e-07
-2.14907e-06
2.92487e-07
-2.21218e-06
1.28782e-07
-2.18737e-06
-4.8189e-08
-2.07263e-06
-2.29803e-07
-1.87158e-06
-4.04433e-07
-1.59523e-06
-5.56639e-07
-1.26352e-06
-6.67427e-07
-9.06017e-07
-7.16156e-07
-5.6061e-07
-6.84486e-07
-2.69631e-07
-5.62251e-07
-7.2886e-08
-3.55764e-07
-1.03979e-07
-1.06693e-07
2.17663e-07
-3.64983e-07
6.07695e-07
-7.21903e-07
8.87912e-07
-1.12956e-06
1.04172e-06
-1.54639e-06
1.08016e-06
-1.93834e-06
1.02337e-06
-2.27865e-06
8.9211e-07
-2.54672e-06
7.03945e-07
-2.72679e-06
4.72557e-07
-2.80709e-06
2.09087e-07
-2.77978e-06
-7.55056e-08
-2.64173e-06
-3.67852e-07
-2.39626e-06
-6.49896e-07
-2.05538e-06
-8.97526e-07
-1.64192e-06
-1.08088e-06
-1.19084e-06
-1.16724e-06
-7.48257e-07
-1.12707e-06
-3.67516e-07
-9.42992e-07
-1.02354e-07
-6.20926e-07
-2.06332e-07
-1.32715e-07
3.50378e-07
-4.50452e-07
9.25432e-07
-8.83338e-07
1.3208e-06
-1.37164e-06
1.53003e-06
-1.86638e-06
1.57489e-06
-2.32905e-06
1.48605e-06
-2.73024e-06
1.29329e-06
-3.04753e-06
1.02124e-06
-3.26364e-06
6.88669e-07
-3.36515e-06
3.1059e-07
-3.34224e-06
-9.84156e-08
-3.18966e-06
-5.20423e-07
-2.90885e-06
-9.30706e-07
-2.51095e-06
-1.29543e-06
-2.02014e-06
-1.57169e-06
-1.47615e-06
-1.71122e-06
-9.3425e-07
-1.66897e-06
-4.61422e-07
-1.41582e-06
-1.28481e-07
-9.53866e-07
-3.34813e-07
-1.57722e-07
5.08099e-07
-5.34488e-07
1.3022e-06
-1.04393e-06
1.83024e-06
-1.61384e-06
2.09994e-06
-2.18746e-06
2.14851e-06
-2.72208e-06
2.02067e-06
-3.18626e-06
1.75747e-06
-3.55651e-06
1.39149e-06
-3.8145e-06
9.46655e-07
-3.94514e-06
4.41232e-07
-3.93603e-06
-1.0752e-07
-3.77843e-06
-6.78026e-07
-3.46987e-06
-1.23927e-06
-3.01839e-06
-1.74691e-06
-2.44771e-06
-2.14237e-06
-1.80184e-06
-2.35709e-06
-1.14691e-06
-2.3239e-06
-5.6765e-07
-1.99508e-06
-1.57103e-07
-1.36441e-06
-4.91916e-07
-1.85013e-07
6.93112e-07
-6.26078e-07
1.74326e-06
-1.21868e-06
2.42284e-06
-1.87681e-06
2.75806e-06
-2.5354e-06
2.8071e-06
-3.1478e-06
2.63307e-06
-3.68122e-06
2.29089e-06
-4.11192e-06
1.82219e-06
-4.42112e-06
1.25585e-06
-4.59217e-06
6.12283e-07
-4.60942e-06
-9.02738e-08
-4.45902e-06
-8.28426e-07
-4.13211e-06
-1.56617e-06
-3.63051e-06
-2.24851e-06
-2.97447e-06
-2.79841e-06
-2.21088e-06
-3.12069e-06
-1.41834e-06
-3.11644e-06
-7.04913e-07
-2.7085e-06
-1.94478e-07
-1.87485e-06
-6.86394e-07
-2.17538e-07
9.1065e-07
-7.33425e-07
2.25915e-06
-1.42092e-06
3.11033e-06
-2.17788e-06
3.51502e-06
-2.93029e-06
3.55952e-06
-3.62805e-06
3.33083e-06
-4.23816e-06
2.901e-06
-4.7379e-06
2.32193e-06
-5.1091e-06
1.62705e-06
-5.33407e-06
8.37261e-07
-5.39358e-06
-3.0772e-08
-5.26711e-06
-9.54888e-07
-4.93641e-06
-1.89687e-06
-4.39269e-06
-2.79224e-06
-3.64783e-06
-3.54326e-06
-2.7479e-06
-4.02063e-06
-1.78422e-06
-4.08012e-06
-8.94881e-07
-3.59784e-06
-2.47886e-07
-2.52184e-06
-9.34279e-07
-2.58113e-07
1.16876e-06
-8.64073e-07
2.86511e-06
-1.662e-06
3.90826e-06
-2.53013e-06
4.38315e-06
-3.38486e-06
4.41425e-06
-4.17372e-06
4.11969e-06
-4.86537e-06
3.59264e-06
-5.44013e-06
2.8967e-06
-5.88233e-06
2.06925e-06
-6.1746e-06
1.12953e-06
-6.29454e-06
8.91675e-08
-6.21399e-06
-1.03544e-06
-5.90215e-06
-2.20871e-06
-5.33411e-06
-3.36028e-06
-4.50588e-06
-4.3715e-06
-3.45518e-06
-5.07132e-06
-2.2828e-06
-5.25251e-06
-1.16299e-06
-4.71765e-06
-3.26444e-07
-3.35839e-06
-1.26072e-06
-3.09854e-07
1.47862e-06
-1.02548e-06
3.58073e-06
-1.95134e-06
4.83413e-06
-2.94137e-06
5.37318e-06
-3.90215e-06
5.37503e-06
-4.7809e-06
4.99844e-06
-5.55085e-06
4.36259e-06
-6.19846e-06
3.54432e-06
-6.71348e-06
2.58426e-06
-7.08146e-06
1.49752e-06
-7.27871e-06
2.86408e-07
-7.26973e-06
-1.04441e-06
-7.00906e-06
-2.46938e-06
-6.44974e-06
-3.9196e-06
-5.5618e-06
-5.25943e-06
-4.36189e-06
-6.27123e-06
-2.94993e-06
-6.66447e-06
-1.53796e-06
-6.12962e-06
-4.41941e-07
-4.45441e-06
-1.70266e-06
-3.76861e-07
1.85548e-06
-1.22578e-06
4.42965e-06
-2.29612e-06
5.90446e-06
-3.41194e-06
6.48901e-06
-4.47103e-06
6.43411e-06
-5.42401e-06
5.95142e-06
-6.25306e-06
5.19164e-06
-6.95507e-06
4.24633e-06
-7.52938e-06
3.15856e-06
-7.96854e-06
1.93668e-06
-8.2514e-06
5.69261e-07
-8.33804e-06
-9.57769e-07
-8.16874e-06
-2.63868e-06
-7.67035e-06
-4.41798e-06
-6.77577e-06
-6.15402e-06
-5.46186e-06
-7.58515e-06
-3.80622e-06
-8.32011e-06
-2.04812e-06
-7.88772e-06
-6.09401e-07
-5.89312e-06
-2.31207e-06
-4.65379e-07
2.32086e-06
-1.47483e-06
5.4391e-06
-2.70005e-06
7.12969e-06
-3.93014e-06
7.71909e-06
-5.05806e-06
7.56204e-06
-6.04447e-06
6.93783e-06
-6.88681e-06
6.03397e-06
-7.59796e-06
4.95749e-06
-8.19201e-06
3.75262e-06
-8.67401e-06
2.41868e-06
-9.03133e-06
9.26587e-07
-9.22606e-06
-7.63039e-07
-9.18947e-06
-2.67527e-06
-8.8231e-06
-4.78436e-06
-8.01431e-06
-6.96281e-06
-6.67776e-06
-8.9217e-06
-4.83288e-06
-1.0165e-05
-2.71208e-06
-1.00085e-05
-8.47177e-07
-7.75803e-06
-3.15924e-06
-5.86002e-07
2.90686e-06
-1.78529e-06
6.63838e-06
-3.15997e-06
8.50437e-06
-4.46293e-06
9.02205e-06
-5.59312e-06
8.69223e-06
-6.53266e-06
7.87738e-06
-7.30324e-06
6.80455e-06
-7.94032e-06
5.59456e-06
-8.47818e-06
4.29048e-06
-8.94005e-06
2.88056e-06
-9.32937e-06
1.3159e-06
-9.62005e-06
-4.72365e-07
-9.74599e-06
-2.54932e-06
-9.59341e-06
-4.93694e-06
-9.0051e-06
-7.55112e-06
-7.81435e-06
-1.01124e-05
-5.9341e-06
-1.20452e-05
-3.52053e-06
-1.24221e-05
-1.17583e-06
-1.01027e-05
-4.33508e-06
-7.58011e-07
3.66487e-06
-2.1736e-06
8.05397e-06
-3.65695e-06
9.98772e-06
-4.93715e-06
1.03023e-05
-5.94365e-06
9.69873e-06
-6.69943e-06
8.63316e-06
-7.26242e-06
7.36753e-06
-7.69722e-06
6.02937e-06
-8.06215e-06
4.6554e-06
-8.40234e-06
3.22075e-06
-8.7435e-06
1.65706e-06
-9.08254e-06
-1.33319e-07
-9.37338e-06
-2.25849e-06
-9.50865e-06
-4.80167e-06
-9.30482e-06
-7.75495e-06
-8.51137e-06
-1.09059e-05
-6.88689e-06
-1.36697e-05
-4.40364e-06
-1.49053e-05
-1.61284e-06
-1.28935e-05
-5.94792e-06
-1.01669e-06
4.68156e-06
-2.65615e-06
9.69344e-06
-4.13191e-06
1.14635e-05
-5.19878e-06
1.13691e-05
-5.86683e-06
1.03668e-05
-6.22957e-06
8.99589e-06
-6.39462e-06
7.53258e-06
-6.45928e-06
6.09403e-06
-6.50445e-06
4.70058e-06
-6.59492e-06
3.31121e-06
-6.77923e-06
1.84136e-06
-7.08464e-06
1.72099e-07
-7.5033e-06
-1.83983e-06
-7.96588e-06
-4.33909e-06
-8.30361e-06
-7.41721e-06
-8.21413e-06
-1.09954e-05
-7.28329e-06
-1.46006e-05
-5.17451e-06
-1.70141e-05
-2.15358e-06
-1.59145e-05
-8.1015e-06
-1.41821e-06
6.09977e-06
-3.21896e-06
1.14942e-05
-4.41299e-06
1.26575e-05
-4.91888e-06
1.1875e-05
-4.91579e-06
1.03637e-05
-4.60274e-06
8.68283e-06
-4.14333e-06
7.07318e-06
-3.66028e-06
5.61098e-06
-3.24464e-06
4.28493e-06
-2.96792e-06
3.0345e-06
-2.89157e-06
1.76502e-06
-3.07023e-06
3.50755e-07
-3.5443e-06
-1.36576e-06
-4.31408e-06
-3.56931e-06
-5.28531e-06
-6.44598e-06
-6.18383e-06
-1.00969e-05
-6.47598e-06
-1.43084e-05
-5.43621e-06
-1.80539e-05
-2.71565e-06
-1.8635e-05
-1.08171e-05
-2.01163e-06
8.11139e-06
-3.67646e-06
1.3159e-05
-4.00054e-06
1.29816e-05
-3.37408e-06
1.12485e-05
-2.2573e-06
9.24692e-06
-9.62986e-07
7.38852e-06
3.14896e-07
5.7953e-06
1.46065e-06
4.46523e-06
2.40327e-06
3.34232e-06
3.09028e-06
2.34749e-06
3.46885e-06
1.38645e-06
3.47351e-06
3.4609e-07
3.02258e-06
-9.14824e-07
2.03154e-06
-2.57828e-06
4.62563e-07
-4.877e-06
-1.55955e-06
-8.07476e-06
-3.54646e-06
-1.23215e-05
-4.4561e-06
-1.71442e-05
-3.0167e-06
-2.00744e-05
-1.38338e-05
-2.66027e-06
1.07717e-05
-3.14588e-06
1.36446e-05
-1.47379e-06
1.13095e-05
1.03101e-06
8.74375e-06
3.64512e-06
6.63281e-06
6.05833e-06
4.9753e-06
8.14621e-06
3.70742e-06
9.86998e-06
2.74146e-06
1.12253e-05
1.98697e-06
1.22109e-05
1.36195e-06
1.28075e-05
7.89816e-07
1.29629e-05
1.90625e-07
1.2579e-05
-5.30874e-07
1.15045e-05
-1.50379e-06
9.55072e-06
-2.92321e-06
6.57617e-06
-5.10021e-06
2.74078e-06
-8.4861e-06
-9.83762e-07
-1.34197e-05
-2.37473e-06
-1.86835e-05
-1.62086e-05
-1.8128e-06
1.25845e-05
1.82769e-06
1.00041e-05
6.90788e-06
6.2293e-06
1.15292e-05
4.1224e-06
1.53465e-05
2.81555e-06
1.83899e-05
1.93191e-06
2.07642e-05
1.33312e-06
2.25814e-05
9.24235e-07
2.39347e-05
6.33684e-07
2.48858e-05
4.10886e-07
2.54577e-05
2.17852e-07
2.56273e-05
2.10982e-08
2.53119e-05
-2.15549e-07
2.43491e-05
-5.40991e-07
2.24645e-05
-1.03859e-06
1.92486e-05
-1.88428e-06
1.42532e-05
-3.49068e-06
7.50291e-06
-6.66944e-06
9.66205e-07
-1.21468e-05
-1.52424e-05
1.25845e-05
2.25886e-05
2.88179e-05
3.29403e-05
3.57559e-05
3.76878e-05
3.90209e-05
3.99451e-05
4.05788e-05
4.09897e-05
4.12076e-05
4.12287e-05
4.10131e-05
4.04721e-05
3.94335e-05
3.75492e-05
3.40586e-05
2.73891e-05
1.52424e-05
)
;

boundaryField
{
    movingWall
    {
        type            calculated;
        value           uniform 0;
    }
    fixedWalls
    {
        type            calculated;
        value           uniform 0;
    }
    frontAndBack
    {
        type            empty;
        value           nonuniform 0();
    }
}


// ************************************************************************* //
