/*--------------------------------*- C++ -*----------------------------------*\
  =========                 |
  \\      /  F ield         | OpenFOAM: The Open Source CFD Toolbox
   \\    /   O peration     | Website:  https://openfoam.org
    \\  /    A nd           | Version:  6
     \\/     M anipulation  |
\*---------------------------------------------------------------------------*/
FoamFile
{
    version     2.0;
    format      ascii;
    class       volScalarField;
    location    "0.02";
    object      p;
}
// * * * * * * * * * * * * * * * * * * * * * * * * * * * * * * * * * * * * * //

dimensions      [0 2 -2 0 0 0 0];

internalField   nonuniform List<scalar> 
400
(
-2.545e-05
-0.022519
-0.0503666
-0.0716263
-0.0792342
-0.0700441
-0.0438486
-0.00255138
0.0505051
0.111042
0.174232
0.235034
0.288525
0.330265
0.356752
0.365981
0.358169
0.336592
0.308522
0.286044
0.0222104
-0.000896314
-0.0227457
-0.0373506
-0.0412294
-0.0321663
-0.00989326
0.0242132
0.0676097
0.116954
0.16842
0.217987
0.261749
0.29623
0.318753
0.327855
0.323806
0.308926
0.286878
0.263796
0.051702
0.0196502
-0.00404715
-0.0175375
-0.0206372
-0.0121368
0.00792583
0.0382164
0.0765014
0.119911
0.165167
0.208824
0.247518
0.278237
0.298596
0.30716
0.303881
0.29007
0.266115
0.234065
0.078769
0.0343445
0.00477811
-0.0106879
-0.014577
-0.00657666
0.0128128
0.0420159
0.0787835
0.120384
0.163755
0.205686
0.24301
0.272814
0.292654
0.300807
0.296739
0.280864
0.250907
0.206391
0.0971423
0.0395428
0.00290416
-0.0153914
-0.0202003
-0.0120114
0.00816262
0.0383769
0.0762031
0.118871
0.163357
0.206499
0.245135
0.27626
0.297174
0.305718
0.300791
0.281997
0.244771
0.186876
0.10229
0.0311101
-0.0129718
-0.0340458
-0.039125
-0.0294677
-0.0066524
0.0269065
0.0684809
0.115137
0.16376
0.211107
0.253883
0.288843
0.312885
0.323271
0.318251
0.296627
0.251698
0.179868
0.0902146
0.00489517
-0.0465868
-0.069703
-0.0736956
-0.0606652
-0.0328515
0.00675661
0.0550351
0.108802
0.164772
0.219543
0.269601
0.31135
0.341156
0.355551
0.351994
0.328371
0.275731
0.189204
0.0565771
-0.043696
-0.102147
-0.125828
-0.126574
-0.107542
-0.0717928
-0.023008
0.035221
0.0994283
0.166146
0.231799
0.292629
0.344631
0.383526
0.404944
0.405328
0.38137
0.321433
0.21915
-0.00401838
-0.120299
-0.184777
-0.206606
-0.200938
-0.172373
-0.125037
-0.0634372
0.00832942
0.0865417
0.167613
0.247871
0.323368
0.389695
0.441851
0.474362
0.482334
0.460785
0.394548
0.275182
-0.0987156
-0.232196
-0.300889
-0.317067
-0.300416
-0.257602
-0.194138
-0.115495
-0.0262537
0.0697263
0.16891
0.267718
0.362174
0.447579
0.518187
0.567227
0.588035
0.573215
0.502675
0.364778
-0.237339
-0.389107
-0.458601
-0.463127
-0.428884
-0.365498
-0.28027
-0.179717
-0.0687824
0.0487907
0.169835
0.291197
0.409204
0.519117
0.614566
0.687337
0.728502
0.727186
0.656156
0.498475
-0.433982
-0.604389
-0.668242
-0.651521
-0.590042
-0.497601
-0.38366
-0.255725
-0.118779
0.0240033
0.17033
0.318007
0.464195
0.604611
0.732612
0.838586
0.910875
0.933739
0.869382
0.691631
-0.710068
-0.896954
-0.942907
-0.889435
-0.786627
-0.65382
-0.502768
-0.34156
-0.174552
-0.00361321
0.170589
0.347583
0.52616
0.703315
0.872888
1.02434
1.14312
1.20707
1.16285
0.967723
-1.10075
-1.2944
-1.29874
-1.18339
-1.01885
-0.830935
-0.633074
-0.432802
-0.232626
-0.0319818
0.171106
0.378887
0.592864
0.812557
1.03369
1.2461
1.43305
1.56491
1.56639
1.36507
-1.66809
-1.83758
-1.7538
-1.53618
-1.28126
-1.02011
-0.765356
-0.521518
-0.287184
-0.0577836
0.172551
0.409942
0.659911
0.926213
1.20875
1.50054
1.78537
2.02744
2.12383
1.95043
-2.52389
-2.58468
-2.32407
-1.94176
-1.55854
-1.20406
-0.884176
-0.595647
-0.329991
-0.0766664
0.175382
0.437236
0.71976
1.033
1.38441
1.77531
2.19658
2.61314
2.89669
2.84168
-3.86979
-3.61127
-3.01577
-2.38086
-1.82368
-1.35698
-0.968839
-0.640413
-0.351769
-0.0843024
0.179218
0.455491
0.7617
1.11627
1.5387
2.04687
2.65037
3.33085
3.96359
4.24689
-6.15749
-5.01296
-3.78665
-2.79121
-2.02065
-1.43562
-0.989618
-0.637311
-0.342541
-0.0773881
0.181379
0.455524
0.768335
1.1478
1.63017
2.26097
3.08611
4.1405
5.42491
6.6262
-10.5689
-6.84927
-4.3589
-2.91706
-1.9707
-1.3257
-0.877403
-0.547135
-0.283039
-0.0511589
0.17392
0.415162
0.698059
1.05671
1.54328
2.23774
3.24742
4.76612
7.34592
11.1675
-17.9828
-8.61236
-4.15683
-2.38161
-1.4659
-0.922735
-0.582245
-0.347375
-0.164917
-0.00544829
0.150638
0.32036
0.523311
0.78879
1.16978
1.76489
2.75154
4.62391
9.19352
18.6787
)
;

boundaryField
{
    movingWall
    {
        type            zeroGradient;
    }
    fixedWalls
    {
        type            zeroGradient;
    }
    frontAndBack
    {
        type            empty;
    }
}


// ************************************************************************* //
