/*--------------------------------*- C++ -*----------------------------------*\
  =========                 |
  \\      /  F ield         | OpenFOAM: The Open Source CFD Toolbox
   \\    /   O peration     | Website:  https://openfoam.org
    \\  /    A nd           | Version:  6
     \\/     M anipulation  |
\*---------------------------------------------------------------------------*/
FoamFile
{
    version     2.0;
    format      ascii;
    class       surfaceScalarField;
    location    "0.04";
    object      phi;
}
// * * * * * * * * * * * * * * * * * * * * * * * * * * * * * * * * * * * * * //

dimensions      [0 3 -1 0 0 0 0];

internalField   nonuniform List<scalar> 
760
(
-1.79244e-08
1.79244e-08
-7.78266e-08
5.99022e-08
-1.54349e-07
7.65221e-08
-2.31622e-07
7.72728e-08
-3.02962e-07
7.13403e-08
-3.65289e-07
6.23271e-08
-4.16686e-07
5.13966e-08
-4.55686e-07
3.90001e-08
-4.81111e-07
2.54253e-08
-4.9206e-07
1.09488e-08
-4.87935e-07
-4.12502e-09
-4.68484e-07
-1.94509e-08
-4.33852e-07
-3.46321e-08
-3.84643e-07
-4.92082e-08
-3.22026e-07
-6.26169e-08
-2.47986e-07
-7.40405e-08
-1.66133e-07
-8.18534e-08
-8.42272e-08
-8.19053e-08
-1.97623e-08
-6.4465e-08
-1.97623e-08
-6.07035e-08
7.86279e-08
-1.87478e-07
1.86676e-07
-3.3968e-07
2.28724e-07
-4.92911e-07
2.30504e-07
-6.34694e-07
2.13123e-07
-7.58482e-07
1.86115e-07
-8.60173e-07
1.53088e-07
-9.36778e-07
1.15604e-07
-9.86028e-07
7.46755e-08
-1.00629e-06
3.12104e-08
-9.96567e-07
-1.38474e-08
-9.56556e-07
-5.94617e-08
-8.86731e-07
-1.04457e-07
-7.88477e-07
-1.47462e-07
-6.64322e-07
-1.86772e-07
-5.18471e-07
-2.19891e-07
-3.58287e-07
-2.42037e-07
-1.97881e-07
-2.42312e-07
-6.40127e-08
-1.98333e-07
-8.3775e-08
-8.23354e-08
1.60963e-07
-2.44665e-07
3.49006e-07
-4.34944e-07
4.19003e-07
-6.24849e-07
4.2041e-07
-7.99997e-07
3.8827e-07
-9.52616e-07
3.38735e-07
-1.07775e-06
2.78224e-07
-1.17181e-06
2.09664e-07
-1.23211e-06
1.34969e-07
-1.25672e-06
5.58252e-08
-1.2445e-06
-2.60682e-08
-1.19509e-06
-1.08872e-07
-1.10904e-06
-1.90504e-07
-9.87995e-07
-2.68509e-07
-8.34966e-07
-3.39802e-07
-6.54998e-07
-3.99858e-07
-4.56815e-07
-4.4022e-07
-2.56761e-07
-4.42366e-07
-8.60455e-08
-3.69048e-07
-1.69821e-07
-9.32266e-08
2.5419e-07
-2.77308e-07
5.33087e-07
-4.91566e-07
6.33261e-07
-7.04162e-07
6.33006e-07
-8.99531e-07
5.8364e-07
-1.06941e-06
5.08615e-07
-1.20856e-06
4.17378e-07
-1.31322e-06
3.1432e-07
-1.38056e-06
2.02308e-07
-1.40855e-06
8.38121e-08
-1.39588e-06
-3.87316e-08
-1.34205e-06
-1.6271e-07
-1.24741e-06
-2.85144e-07
-1.11346e-06
-4.02459e-07
-9.43191e-07
-5.10068e-07
-7.41871e-07
-6.01178e-07
-5.18895e-07
-6.63196e-07
-2.92303e-07
-6.68958e-07
-9.76894e-08
-5.63662e-07
-2.6751e-07
-1.02569e-07
3.56758e-07
-3.06279e-07
7.36798e-07
-5.42902e-07
8.69884e-07
-7.76831e-07
8.66935e-07
-9.91122e-07
7.9793e-07
-1.17706e-06
6.94556e-07
-1.3293e-06
5.69618e-07
-1.44406e-06
4.29079e-07
-1.51852e-06
2.76769e-07
-1.55058e-06
1.15873e-07
-1.53877e-06
-5.05476e-08
-1.48224e-06
-2.1924e-07
-1.38094e-06
-3.8644e-07
-1.23591e-06
-5.4749e-07
-1.04978e-06
-6.96201e-07
-8.27778e-07
-8.23178e-07
-5.80005e-07
-9.10969e-07
-3.26703e-07
-9.2226e-07
-1.08651e-07
-7.81714e-07
-3.76161e-07
-1.14121e-07
4.7088e-07
-3.41296e-07
9.63974e-07
-6.04642e-07
1.13323e-06
-8.64047e-07
1.12634e-06
-1.10081e-06
1.03469e-06
-1.30569e-06
8.99443e-07
-1.47333e-06
7.37254e-07
-1.60008e-06
5.55828e-07
-1.68325e-06
3.59942e-07
-1.72075e-06
1.53371e-07
-1.71088e-06
-6.04185e-08
-1.65233e-06
-2.77783e-07
-1.54437e-06
-4.94406e-07
-1.38718e-06
-7.0468e-07
-1.18265e-06
-9.00732e-07
-9.35714e-07
-1.07011e-06
-6.57263e-07
-1.18942e-06
-3.70495e-07
-1.20903e-06
-1.2291e-07
-1.0293e-06
-4.99071e-07
-1.29408e-07
6.00288e-07
-3.86765e-07
1.22133e-06
-6.84026e-07
1.43049e-06
-9.75377e-07
1.41769e-06
-1.23993e-06
1.29924e-06
-1.46794e-06
1.12746e-06
-1.65421e-06
9.23515e-07
-1.79547e-06
6.97088e-07
-1.88939e-06
4.5387e-07
-1.93402e-06
1.97997e-07
-1.92744e-06
-6.70003e-08
-1.86771e-06
-3.37513e-07
-1.75303e-06
-6.09088e-07
-1.58223e-06
-8.75475e-07
-1.35583e-06
-1.12713e-06
-1.07793e-06
-1.34801e-06
-7.60107e-07
-1.50724e-06
-4.29393e-07
-1.53974e-06
-1.42371e-07
-1.31632e-06
-6.41442e-07
-1.49502e-07
7.4979e-07
-4.45776e-07
1.5176e-06
-7.86e-07
1.77071e-06
-1.11701e-06
1.7487e-06
-1.41533e-06
1.59756e-06
-1.67084e-06
1.38297e-06
-1.8789e-06
1.13158e-06
-2.0371e-06
8.55284e-07
-2.14383e-06
5.60604e-07
-2.19753e-06
2.51694e-07
-2.19614e-06
-6.83952e-08
-2.1369e-06
-3.96749e-07
-2.01649e-06
-7.29493e-07
-1.83163e-06
-1.06034e-06
-1.58039e-06
-1.37836e-06
-1.26503e-06
-1.66338e-06
-8.97274e-07
-1.875e-06
-5.0885e-07
-1.92817e-06
-1.68854e-07
-1.65632e-06
-8.10295e-07
-1.75763e-07
9.25553e-07
-5.22007e-07
1.86385e-06
-9.16138e-07
2.16484e-06
-1.2955e-06
2.12807e-06
-1.63367e-06
1.93573e-06
-1.92064e-06
1.66994e-06
-2.15302e-06
1.36396e-06
-2.32998e-06
1.03224e-06
-2.45128e-06
6.81903e-07
-2.51617e-06
3.16591e-07
-2.52266e-06
-6.19109e-08
-2.46703e-06
-4.52382e-07
-2.34386e-06
-8.52662e-07
-2.14662e-06
-1.25758e-06
-1.8694e-06
-1.65559e-06
-1.51061e-06
-2.02216e-06
-1.08072e-06
-2.30489e-06
-6.16747e-07
-2.39214e-06
-2.05122e-07
-2.06794e-06
-1.01542e-06
-2.10337e-07
1.13589e-06
-6.20919e-07
2.27443e-06
-1.08229e-06
2.62622e-06
-1.51957e-06
2.56535e-06
-1.9033e-06
2.31945e-06
-2.22453e-06
1.99117e-06
-2.48236e-06
1.6218e-06
-2.67867e-06
1.22855e-06
-2.81556e-06
8.18793e-07
-2.89382e-06
3.94846e-07
-2.91186e-06
-4.38725e-08
-2.865e-06
-4.99244e-07
-2.74512e-06
-9.72542e-07
-2.54104e-06
-1.46165e-06
-2.24037e-06
-1.95625e-06
-1.83441e-06
-2.42813e-06
-1.32906e-06
-2.81024e-06
-7.66179e-07
-2.95502e-06
-2.56065e-07
-2.57806e-06
-1.27148e-06
-2.56847e-07
1.39274e-06
-7.51181e-07
2.76876e-06
-1.29624e-06
3.17127e-06
-1.80154e-06
3.07065e-06
-2.23521e-06
2.75313e-06
-2.59123e-06
2.34718e-06
-2.87313e-06
1.9037e-06
-3.08724e-06
1.44266e-06
-3.23933e-06
9.70885e-07
-3.33277e-06
4.88282e-07
-3.36709e-06
-9.55222e-09
-3.33688e-06
-5.29445e-07
-3.23091e-06
-1.07852e-06
-3.03174e-06
-1.66082e-06
-2.71716e-06
-2.27083e-06
-2.26586e-06
-2.87943e-06
-1.67255e-06
-3.40355e-06
-9.80228e-07
-3.64734e-06
-3.31066e-07
-3.22722e-06
-1.60255e-06
-3.21695e-07
1.71443e-06
-9.27017e-07
3.37409e-06
-1.576e-06
3.82025e-06
-2.159e-06
3.65366e-06
-2.64395e-06
3.23808e-06
-3.03109e-06
2.73431e-06
-3.33145e-06
2.20407e-06
-3.55818e-06
1.66938e-06
-3.72256e-06
1.13526e-06
-3.83192e-06
5.97649e-07
-3.88805e-06
4.65764e-08
-3.88561e-06
-5.3189e-07
-3.81036e-06
-1.15377e-06
-3.6374e-06
-1.83378e-06
-3.33074e-06
-2.5775e-06
-2.84818e-06
-3.36199e-06
-2.16064e-06
-4.09109e-06
-1.30087e-06
-4.50711e-06
-4.49327e-07
-4.07876e-06
-2.05188e-06
-4.16694e-07
2.13113e-06
-1.17226e-06
4.12965e-06
-1.94918e-06
4.59717e-06
-2.6165e-06
4.32097e-06
-3.14753e-06
3.76911e-06
-3.55467e-06
3.14145e-06
-3.86088e-06
2.51028e-06
-4.0892e-06
1.89771e-06
-4.25863e-06
1.30469e-06
-4.38213e-06
7.2115e-07
-4.4653e-06
1.29746e-07
-4.50451e-06
-4.92675e-07
-4.48404e-06
-1.17424e-06
-4.37178e-06
-1.94604e-06
-4.11469e-06
-2.83458e-06
-3.63903e-06
-3.83765e-06
-2.8703e-06
-4.85983e-06
-1.80324e-06
-5.57416e-06
-6.50838e-07
-5.23117e-06
-2.70271e-06
-5.64244e-07
2.69537e-06
-1.52661e-06
5.09202e-06
-2.45589e-06
5.52645e-06
-3.20396e-06
5.06904e-06
-3.76216e-06
4.32731e-06
-4.1646e-06
3.54388e-06
-4.45218e-06
2.79787e-06
-4.66142e-06
2.10695e-06
-4.82106e-06
1.46432e-06
-4.95128e-06
8.5137e-07
-5.0633e-06
2.41772e-07
-5.15787e-06
-3.98104e-07
-5.2214e-06
-1.11071e-06
-5.21839e-06
-1.94905e-06
-5.07959e-06
-2.97339e-06
-4.69008e-06
-4.22716e-06
-3.89882e-06
-5.65108e-06
-2.60607e-06
-6.86691e-06
-1.01268e-06
-6.82456e-06
-3.7154e-06
-8.06268e-07
3.50164e-06
-2.05114e-06
6.33689e-06
-3.14188e-06
6.6172e-06
-3.93757e-06
5.86473e-06
-4.47349e-06
4.86323e-06
-4.81992e-06
3.89031e-06
-5.04285e-06
3.0208e-06
-5.19518e-06
2.25927e-06
-5.31623e-06
1.58537e-06
-5.43375e-06
9.68893e-07
-5.56571e-06
3.7373e-07
-5.7202e-06
-2.43609e-07
-5.89172e-06
-9.39195e-07
-6.05066e-06
-1.79011e-06
-6.12184e-06
-2.9022e-06
-5.95095e-06
-4.39805e-06
-5.28079e-06
-6.32125e-06
-3.8273e-06
-8.3204e-06
-1.65084e-06
-9.00103e-06
-5.36623e-06
-1.21321e-06
4.71485e-06
-2.8121e-06
7.93578e-06
-4.00147e-06
7.80657e-06
-4.72868e-06
6.59194e-06
-5.12178e-06
5.25633e-06
-5.30569e-06
4.07423e-06
-5.37667e-06
3.09177e-06
-5.40313e-06
2.28574e-06
-5.43176e-06
1.614e-06
-5.49449e-06
1.03162e-06
-5.61402e-06
4.93255e-07
-5.80663e-06
-5.0999e-08
-6.0806e-06
-6.65226e-07
-6.42578e-06
-1.44492e-06
-6.78511e-06
-2.54287e-06
-6.99526e-06
-4.1879e-06
-6.70216e-06
-6.61435e-06
-5.35461e-06
-9.66795e-06
-2.63482e-06
-1.17208e-05
-8.00106e-06
-1.86941e-06
6.58425e-06
-3.75225e-06
9.81862e-06
-4.73051e-06
8.78484e-06
-5.05855e-06
6.91998e-06
-5.03356e-06
5.23134e-06
-4.84517e-06
3.88584e-06
-4.60977e-06
2.85637e-06
-4.39679e-06
2.07276e-06
-4.24634e-06
1.46355e-06
-4.18293e-06
9.68214e-07
-4.22523e-06
5.35553e-07
-4.39221e-06
1.15984e-07
-4.70567e-06
-3.51765e-07
-5.18563e-06
-9.64964e-07
-5.82684e-06
-1.90166e-06
-6.53023e-06
-3.48451e-06
-6.95405e-06
-6.19053e-06
-6.32662e-06
-1.02954e-05
-3.68718e-06
-1.43603e-05
-1.16882e-05
-2.74506e-06
9.32931e-06
-4.12335e-06
1.11969e-05
-3.90041e-06
8.5619e-06
-3.07721e-06
6.09677e-06
-2.14294e-06
4.29707e-06
-1.27643e-06
3.01932e-06
-5.45534e-07
2.12548e-06
2.74327e-08
1.49979e-06
4.41422e-07
1.04956e-06
7.01229e-07
7.08407e-07
8.07724e-07
4.29058e-07
7.51403e-07
1.72305e-07
5.0623e-07
-1.06593e-07
2.26895e-08
-4.81423e-07
-7.73969e-07
-1.10501e-06
-1.95108e-06
-2.3074e-06
-3.41698e-06
-4.72462e-06
-4.53202e-06
-9.18034e-06
-3.66995e-06
-1.52223e-05
-1.53582e-05
-2.59203e-06
1.19213e-05
-2.91631e-07
8.89651e-06
3.09415e-06
5.17612e-06
5.91756e-06
3.27336e-06
8.07024e-06
2.14439e-06
9.68656e-06
1.403e-06
1.08849e-05
9.27104e-07
1.1759e-05
6.25722e-07
1.23804e-05
4.28119e-07
1.27991e-05
2.89781e-07
1.30441e-05
1.8407e-07
1.31239e-05
9.25041e-08
1.30205e-05
-3.24848e-09
1.26721e-05
-1.32972e-07
1.19336e-05
-3.6652e-07
1.05175e-05
-8.91354e-07
7.9949e-06
-2.20199e-06
4.10987e-06
-5.29531e-06
3.65649e-08
-1.1149e-05
-1.53216e-05
1.19213e-05
2.08179e-05
2.5994e-05
2.92673e-05
3.14117e-05
3.28147e-05
3.37418e-05
3.43676e-05
3.47957e-05
3.50855e-05
3.52695e-05
3.5362e-05
3.53588e-05
3.52258e-05
3.48593e-05
3.39679e-05
3.17659e-05
2.64706e-05
1.53216e-05
)
;

boundaryField
{
    movingWall
    {
        type            calculated;
        value           uniform 0;
    }
    fixedWalls
    {
        type            calculated;
        value           uniform 0;
    }
    frontAndBack
    {
        type            empty;
        value           nonuniform 0();
    }
}


// ************************************************************************* //
