/*--------------------------------*- C++ -*----------------------------------*\
  =========                 |
  \\      /  F ield         | OpenFOAM: The Open Source CFD Toolbox
   \\    /   O peration     | Website:  https://openfoam.org
    \\  /    A nd           | Version:  6
     \\/     M anipulation  |
\*---------------------------------------------------------------------------*/
FoamFile
{
    version     2.0;
    format      ascii;
    class       volScalarField;
    location    "0.08";
    object      p;
}
// * * * * * * * * * * * * * * * * * * * * * * * * * * * * * * * * * * * * * //

dimensions      [0 2 -2 0 0 0 0];

internalField   nonuniform List<scalar> 
400
(
2.19933e-07
-0.00304361
-0.00669057
-0.00931644
-0.0100478
-0.00851703
-0.00471213
0.00113113
0.00860486
0.0171751
0.0262132
0.035027
0.042903
0.0491666
0.053263
0.0548607
0.0539699
0.0510634
0.0471939
0.0441167
0.00301279
-0.000125803
-0.00297201
-0.00472304
-0.00497603
-0.00347221
-0.000184233
0.00471972
0.010929
0.0180231
0.0254973
0.0327922
0.0393331
0.0445831
0.0481101
0.0496657
0.0492737
0.047277
0.0442335
0.0410796
0.00688646
0.00252768
-0.000563588
-0.00216055
-0.00231274
-0.000893564
0.00208887
0.00647712
0.0120055
0.0183179
0.0249824
0.0315135
0.037405
0.0421762
0.0454285
0.0469118
0.0466053
0.0447175
0.0413705
0.0369663
0.0102357
0.00420867
0.000342365
-0.00150678
-0.00176859
-0.000437609
0.00242418
0.00663945
0.0119534
0.0180385
0.0244965
0.0308707
0.036671
0.0414138
0.0446716
0.046137
0.045712
0.0434858
0.0392348
0.0330608
0.0121871
0.00439011
-0.000410841
-0.00263356
-0.0030409
-0.00173388
0.00117063
0.00546588
0.0108938
0.0171384
0.0238146
0.0304704
0.0366024
0.0416892
0.0452367
0.0468447
0.0463159
0.0436241
0.0382473
0.0301039
0.0120804
0.0024586
-0.00333359
-0.0059437
-0.00644569
-0.00503841
-0.00189263
0.00275151
0.00862553
0.0154153
0.0227369
0.0301267
0.0370469
0.0429099
0.0471206
0.0491492
0.0486689
0.0455254
0.0389047
0.0285986
0.00931219
-0.0022109
-0.00900469
-0.0119424
-0.0124176
-0.0107292
-0.00710346
-0.00181583
0.00485309
0.0125889
0.0210054
0.0296202
0.0378474
0.0450107
0.0503796
0.0532501
0.0531197
0.0496663
0.0417389
0.029008
0.00322937
-0.0103015
-0.0180668
-0.0211981
-0.0214507
-0.01924
-0.0148543
-0.00860476
-0.000780074
0.00831215
0.0182907
0.0286595
0.0387829
0.0478812
0.055055
0.0593716
0.0600848
0.0566277
0.0474025
0.0319092
-0.00695209
-0.0226239
-0.0312782
-0.0343764
-0.0341176
-0.0310675
-0.0255893
-0.0180298
-0.00867548
0.00219008
0.0142115
0.0268998
0.0395836
0.0513787
0.0611894
0.067792
0.0701009
0.067179
0.0567878
0.0381383
-0.0222181
-0.0401805
-0.0495481
-0.0522423
-0.0510431
-0.0467243
-0.0397446
-0.0304852
-0.0192124
-0.00615716
0.00838768
0.0239808
0.0399521
0.0553353
0.0688272
0.0788508
0.08386
0.082359
0.0711579
0.0489498
-0.0438494
-0.0642489
-0.0739722
-0.075641
-0.0728424
-0.0666473
-0.0576375
-0.0462238
-0.0326253
-0.0169773
0.000545134
0.0196126
0.039625
0.0595923
0.0780285
0.0929608
0.102247
0.103574
0.0923208
0.0662361
-0.0735939
-0.0965166
-0.105875
-0.105452
-0.100012
-0.0910498
-0.0792975
-0.0651791
-0.0488235
-0.0302094
-0.009319
0.0137218
0.0384891
0.0640804
0.088914
0.110635
0.126389
0.132721
0.122878
0.0928776
-0.114031
-0.139317
-0.146855
-0.142492
-0.132753
-0.119704
-0.104235
-0.0867331
-0.0671646
-0.0452665
-0.0207303
0.00663938
0.036742
0.0689382
0.101734
0.132519
0.1577
0.172343
0.166597
0.133358
-0.169392
-0.196038
-0.198797
-0.187306
-0.170673
-0.151634
-0.131154
-0.109464
-0.0862346
-0.0608398
-0.0325589
-0.000736041
0.0350312
0.0746111
0.116907
0.159373
0.197862
0.22576
0.228987
0.194954
-0.247348
-0.271781
-0.263694
-0.239693
-0.212288
-0.184691
-0.157644
-0.130941
-0.103729
-0.0748405
-0.0429977
-0.006939
0.0344336
0.0817891
0.134876
0.19182
0.248531
0.296995
0.318039
0.289966
-0.362389
-0.374073
-0.343086
-0.297935
-0.254383
-0.215153
-0.180015
-0.147762
-0.116628
-0.0846631
-0.0498755
-0.010268
0.0361225
0.091066
0.15572
0.229843
0.310701
0.390169
0.444626
0.439005
-0.54218
-0.51317
-0.437072
-0.358264
-0.291882
-0.237925
-0.193779
-0.156215
-0.121966
-0.087999
-0.0514761
-0.00958699
0.0406043
0.102234
0.178517
0.272183
0.383916
0.508289
0.622298
0.676329
-0.851152
-0.702026
-0.538927
-0.411045
-0.315882
-0.245883
-0.193829
-0.152955
-0.117766
-0.0839428
-0.0478051
-0.00581058
0.0458981
0.111955
0.198274
0.312206
0.460787
0.647482
0.869357
1.0753
-1.46411
-0.947468
-0.606704
-0.418343
-0.299887
-0.22204
-0.170057
-0.132608
-0.101929
-0.0728173
-0.04127
-0.00356356
0.0444985
0.108492
0.196807
0.322417
0.503064
0.768112
1.19899
1.81744
-2.53927
-1.17894
-0.554518
-0.324615
-0.213641
-0.151621
-0.116168
-0.0934265
-0.0752382
-0.0569601
-0.0354014
-0.00769095
0.029498
0.0809682
0.15504
0.2675
0.448485
0.775479
1.5146
2.98946
)
;

boundaryField
{
    movingWall
    {
        type            zeroGradient;
    }
    fixedWalls
    {
        type            zeroGradient;
    }
    frontAndBack
    {
        type            empty;
    }
}


// ************************************************************************* //
