/*--------------------------------*- C++ -*----------------------------------*\
  =========                 |
  \\      /  F ield         | OpenFOAM: The Open Source CFD Toolbox
   \\    /   O peration     | Website:  https://openfoam.org
    \\  /    A nd           | Version:  6
     \\/     M anipulation  |
\*---------------------------------------------------------------------------*/
FoamFile
{
    version     2.0;
    format      ascii;
    class       volScalarField;
    location    "0.005";
    object      p;
}
// * * * * * * * * * * * * * * * * * * * * * * * * * * * * * * * * * * * * * //

dimensions      [0 2 -2 0 0 0 0];

internalField   nonuniform List<scalar> 
400
(
-1.20438e-07
-0.0388745
-0.0847759
-0.116933
-0.123508
-0.0995456
-0.0452476
0.0355974
0.136849
0.250903
0.369363
0.483583
0.585151
0.66642
0.721174
0.745561
0.739337
0.707385
0.661479
0.62261
0.0384847
-0.00181672
-0.0377187
-0.0589602
-0.0597293
-0.0364544
0.0109284
0.0796234
0.164844
0.260505
0.359771
0.455557
0.541016
0.610029
0.657765
0.681386
0.68094
0.659945
0.624188
0.584179
0.0870576
0.0311034
-0.00827308
-0.0278945
-0.0275004
-0.00515717
0.0387219
0.101428
0.178682
0.265134
0.354769
0.441355
0.518871
0.581916
0.626143
0.648793
0.649453
0.630045
0.590853
0.535291
0.129015
0.0516598
0.00198571
-0.0210962
-0.0219005
1.29877e-05
0.0434551
0.10526
0.181062
0.265668
0.353339
0.438143
0.51432
0.576592
0.620478
0.642729
0.642117
0.619098
0.569502
0.492482
0.154548
0.05412
-0.00807028
-0.036071
-0.0381086
-0.015125
0.0307671
0.0957015
0.174919
0.263051
0.354306
0.442743
0.522543
0.588208
0.634778
0.658216
0.656339
0.628254
0.565942
0.46565
0.156711
0.0316309
-0.0441683
-0.0770845
-0.0790884
-0.0525024
-0.000512396
0.0720827
0.159868
0.257053
0.357567
0.455241
0.54395
0.6177
0.670769
0.698085
0.696338
0.663251
0.587085
0.461803
0.129004
-0.0231127
-0.113144
-0.149839
-0.149274
-0.115371
-0.0526407
0.0329207
0.135014
0.247249
0.363143
0.476152
0.579673
0.667013
0.731448
0.766592
0.767717
0.730872
0.640179
0.487332
0.0637049
-0.118735
-0.223102
-0.261099
-0.253887
-0.207511
-0.128201
-0.0234558
0.0993557
0.233158
0.371012
0.505972
0.630902
0.738308
0.82026
0.868719
0.877065
0.839081
0.733708
0.549765
-0.0495682
-0.266392
-0.384309
-0.419275
-0.399302
-0.333443
-0.230214
-0.0989624
0.0517493
0.214188
0.381065
0.545161
0.698915
0.83405
0.94128
1.0105
1.03256
0.997995
0.878733
0.659389
-0.225384
-0.481043
-0.60997
-0.634722
-0.592983
-0.498166
-0.361816
-0.195469
-0.00889386
0.189725
0.393067
0.593992
0.784833
0.956732
1.09901
1.19908
1.24441
1.22086
1.09038
0.830959
-0.484559
-0.783144
-0.917153
-0.919926
-0.843175
-0.7066
-0.525635
-0.314245
-0.0831895
0.159372
0.406695
0.652367
0.889244
1.10838
1.2979
1.44244
1.52512
1.52507
1.38966
1.08588
-0.857542
-1.20119
-1.3279
-1.28945
-1.15816
-0.962564
-0.722773
-0.455099
-0.170668
0.123274
0.421556
0.719536
1.01163
1.28974
1.54146
1.74871
1.88941
1.93321
1.80594
1.45566
-1.39068
-1.77555
-1.87032
-1.7592
-1.54472
-1.26703
-0.951234
-0.615168
-0.268966
0.0825239
0.437199
0.793693
1.14953
1.49906
1.83079
2.12485
2.3536
2.47419
2.3809
1.98839
-2.159
-2.56466
-2.57906
-2.34414
-2.00494
-1.61516
-1.20361
-0.787281
-0.372818
0.0396369
0.453098
0.871449
1.29744
1.73029
2.16211
2.5738
2.93355
3.18389
3.1749
2.76194
-3.29234
-3.65378
-3.49281
-3.052
-2.52996
-1.99135
-1.46362
-0.957841
-0.47289
-0.000992275
0.468494
0.94698
1.445
1.96997
2.5221
3.08851
3.63858
4.10286
4.27603
3.91069
-5.02023
-5.16257
-4.64584
-3.87278
-3.09125
-2.36337
-1.70291
-1.1053
-0.555257
-0.0330956
0.482027
1.01119
1.57529
2.19399
2.88227
3.64354
4.46127
5.26787
5.80724
5.67036
-7.7506
-7.24416
-6.05211
-4.76947
-3.63649
-2.68143
-1.88202
-1.20205
-0.603203
-0.0497403
0.491314
1.05196
1.6654
2.36767
3.1974
4.19068
5.3681
6.69582
7.92508
8.45576
-12.3893
-10.0903
-7.62684
-5.61754
-4.05405
-2.85975
-1.94216
-1.21154
-0.596975
-0.0442764
0.49123
1.0513
1.68093
2.43488
3.38481
4.62146
6.23746
8.30521
10.8269
13.1821
-21.2968
-13.8196
-8.81467
-5.90665
-3.98885
-2.67266
-1.74759
-1.05679
-0.498158
-0.00588462
0.468513
0.968624
1.5433
2.25896
3.21856
4.58096
6.55997
9.5442
14.6387
22.2175
-36.196
-17.4107
-8.46511
-4.88458
-3.02712
-1.91334
-1.19972
-0.692832
-0.288745
0.0683594
0.414464
0.780421
1.2025
1.73688
2.48781
3.6509
5.57769
9.25501
18.3148
37.2145
)
;

boundaryField
{
    movingWall
    {
        type            zeroGradient;
    }
    fixedWalls
    {
        type            zeroGradient;
    }
    frontAndBack
    {
        type            empty;
    }
}


// ************************************************************************* //
