/*--------------------------------*- C++ -*----------------------------------*\
  =========                 |
  \\      /  F ield         | OpenFOAM: The Open Source CFD Toolbox
   \\    /   O peration     | Website:  https://openfoam.org
    \\  /    A nd           | Version:  6
     \\/     M anipulation  |
\*---------------------------------------------------------------------------*/
FoamFile
{
    version     2.0;
    format      ascii;
    class       surfaceScalarField;
    location    "0.04";
    object      phi;
}
// * * * * * * * * * * * * * * * * * * * * * * * * * * * * * * * * * * * * * //

dimensions      [0 3 -1 0 0 0 0];

internalField   nonuniform List<scalar> 
760
(
1.47845e-08
-1.48076e-08
-2.07583e-08
3.55434e-08
-1.12638e-07
9.18807e-08
-2.44656e-07
1.32019e-07
-3.96714e-07
1.52059e-07
-5.49447e-07
1.52734e-07
-6.861e-07
1.36654e-07
-7.93388e-07
1.07289e-07
-8.61766e-07
6.83788e-08
-8.85459e-07
2.36941e-08
-8.62453e-07
-2.30062e-08
-7.94513e-07
-6.7941e-08
-6.87255e-07
-1.07259e-07
-5.50222e-07
-1.37034e-07
-3.96862e-07
-1.53362e-07
-2.44203e-07
-1.5266e-07
-1.11883e-07
-1.32321e-07
-2.0123e-08
-9.17607e-08
1.50338e-08
-3.51565e-08
1.50342e-08
-3.28901e-08
1.80819e-08
-1.7749e-07
1.80143e-07
-4.3085e-07
3.4524e-07
-7.62846e-07
4.64015e-07
-1.13334e-06
5.22555e-07
-1.50105e-06
5.20446e-07
-1.82862e-06
4.64221e-07
-2.08543e-06
3.64093e-07
-2.24898e-06
2.31929e-07
-2.30551e-06
8.02299e-08
-2.25025e-06
-7.82645e-08
-2.08752e-06
-2.30671e-07
-1.83079e-06
-3.63991e-07
-1.50254e-06
-4.65288e-07
-1.13367e-06
-5.2223e-07
-7.62039e-07
-5.24289e-07
-4.29425e-07
-4.64935e-07
-1.76211e-07
-3.44975e-07
-3.23168e-08
-1.79051e-07
-1.72819e-08
-9.03767e-08
1.08458e-07
-3.53174e-07
4.42939e-07
-7.60796e-07
7.52861e-07
-1.26714e-06
9.70362e-07
-1.81711e-06
1.07252e-06
-2.35492e-06
1.05825e-06
-2.82998e-06
9.39289e-07
-3.20061e-06
7.34722e-07
-3.43601e-06
4.67326e-07
-3.51728e-06
1.61496e-07
-3.43785e-06
-1.57694e-07
-3.20368e-06
-4.64836e-07
-2.83328e-06
-7.34389e-07
-2.3574e-06
-9.41173e-07
-1.81807e-06
-1.06156e-06
-1.26649e-06
-1.07586e-06
-7.59135e-07
-9.72293e-07
-3.51508e-07
-7.52602e-07
-8.95628e-08
-4.40997e-07
-1.06844e-07
-1.42911e-07
2.51369e-07
-5.21422e-07
8.2145e-07
-1.07884e-06
1.31028e-06
-1.74888e-06
1.64039e-06
-2.46107e-06
1.78472e-06
-3.14749e-06
1.74467e-06
-3.74794e-06
1.53974e-06
-4.21343e-06
1.20021e-06
-4.50801e-06
7.61912e-07
-4.60973e-06
2.63209e-07
-4.51091e-06
-2.56507e-07
-4.21842e-06
-7.57331e-07
-3.75365e-06
-1.19916e-06
-3.1524e-06
-1.54243e-06
-2.46402e-06
-1.74993e-06
-1.74949e-06
-1.79039e-06
-1.07767e-06
-1.64411e-06
-5.19711e-07
-1.31056e-06
-1.41932e-07
-8.18776e-07
-2.48775e-07
-1.91281e-07
4.4265e-07
-6.82349e-07
1.31252e-06
-1.38701e-06
2.01494e-06
-2.21605e-06
2.46943e-06
-3.08231e-06
2.65097e-06
-3.90618e-06
2.56854e-06
-4.61972e-06
2.25329e-06
-5.16906e-06
1.74954e-06
-5.51538e-06
1.10823e-06
-5.63519e-06
3.83024e-07
-5.52028e-06
-3.71425e-07
-5.17771e-06
-1.09989e-06
-4.63015e-06
-1.74672e-06
-3.91608e-06
-2.2565e-06
-3.08971e-06
-2.5763e-06
-2.21995e-06
-2.66015e-06
-1.3877e-06
-2.47636e-06
-6.81278e-07
-2.01699e-06
-1.90312e-07
-1.30974e-06
-4.39086e-07
-2.38409e-07
6.81057e-07
-8.41877e-07
1.91599e-06
-1.69405e-06
2.86712e-06
-2.68064e-06
3.45602e-06
-3.69642e-06
3.66676e-06
-4.65032e-06
3.52244e-06
-5.46806e-06
3.07103e-06
-6.09295e-06
2.37443e-06
-6.48535e-06
1.50063e-06
-6.62165e-06
5.19331e-07
-6.49353e-06
-4.99554e-07
-6.10768e-06
-1.48574e-06
-5.48646e-06
-2.36795e-06
-4.66888e-06
-3.07408e-06
-3.7119e-06
-3.53328e-06
-2.69091e-06
-3.68114e-06
-1.69879e-06
-3.46849e-06
-8.42613e-07
-2.87316e-06
-2.37789e-07
-1.91457e-06
-6.76873e-07
-2.87315e-07
9.6837e-07
-1.00694e-06
2.63561e-06
-2.00958e-06
3.86976e-06
-3.15327e-06
4.59971e-06
-4.31366e-06
4.82715e-06
-5.38885e-06
4.59762e-06
-6.30024e-06
3.98242e-06
-6.99091e-06
3.0651e-06
-7.42272e-06
1.93245e-06
-7.57362e-06
6.70233e-07
-7.43569e-06
-6.37486e-07
-7.01461e-06
-1.90682e-06
-6.33059e-06
-3.05196e-06
-5.4207e-06
-3.98397e-06
-4.34189e-06
-4.61208e-06
-3.17405e-06
-4.84899e-06
-2.02142e-06
-4.62111e-06
-1.0112e-06
-3.88339e-06
-2.8758e-07
-2.63819e-06
-9.64451e-07
-3.40838e-07
1.30921e-06
-1.18407e-06
3.47884e-06
-2.34164e-06
5.02733e-06
-3.64026e-06
5.89833e-06
-4.93581e-06
6.1227e-06
-6.11744e-06
5.77925e-06
-7.10559e-06
4.97057e-06
-7.84682e-06
3.80632e-06
-8.30779e-06
2.39342e-06
-8.47013e-06
8.32571e-07
-8.32707e-06
-7.80539e-07
-7.88245e-06
-2.35145e-06
-7.1521e-06
-3.78231e-06
-6.16767e-06
-4.9684e-06
-4.98223e-06
-5.79753e-06
-3.67658e-06
-6.15463e-06
-2.3645e-06
-5.93319e-06
-1.19417e-06
-5.05372e-06
-3.42746e-07
-3.48961e-06
-1.3072e-06
-4.01785e-07
1.71099e-06
-1.37924e-06
4.4563e-06
-2.69565e-06
6.34374e-06
-4.14154e-06
7.34422e-06
-5.55329e-06
7.53444e-06
-6.81501e-06
7.04098e-06
-7.85169e-06
6.00725e-06
-8.61889e-06
4.57353e-06
-9.09256e-06
2.86709e-06
-9.26091e-06
1.00092e-06
-9.11933e-06
-9.22115e-07
-8.66884e-06
-2.80194e-06
-7.91798e-06
-4.53317e-06
-6.88836e-06
-5.99802e-06
-5.62333e-06
-7.06256e-06
-4.19882e-06
-7.57914e-06
-2.73402e-06
-7.39799e-06
-1.39798e-06
-6.38976e-06
-4.06327e-07
-4.48126e-06
-1.71352e-06
-4.73497e-07
2.18449e-06
-1.59832e-06
5.58112e-06
-3.07388e-06
7.81929e-06
-4.64849e-06
8.91883e-06
-6.14143e-06
9.02739e-06
-7.43893e-06
8.33847e-06
-8.47904e-06
7.04737e-06
-9.23413e-06
5.32861e-06
-9.69527e-06
3.32823e-06
-9.86086e-06
1.16651e-06
-9.72979e-06
-1.05318e-06
-9.2992e-06
-3.23254e-06
-8.56685e-06
-5.26551e-06
-7.53837e-06
-7.02651e-06
-6.23929e-06
-8.36164e-06
-4.73162e-06
-9.08681e-06
-3.13235e-06
-8.99726e-06
-1.62888e-06
-7.89323e-06
-4.81878e-07
-5.62827e-06
-2.1954e-06
-5.60863e-07
2.74535e-06
-1.84818e-06
6.86844e-06
-3.4747e-06
9.44581e-06
-5.14066e-06
1.05848e-05
-6.65496e-06
1.05417e-05
-7.91812e-06
9.60164e-06
-8.89378e-06
8.02302e-06
-9.58113e-06
6.01596e-06
-9.99338e-06
3.74049e-06
-1.01432e-05
1.3163e-06
-1.00343e-05
-1.16203e-06
-9.65918e-06
-3.60769e-06
-9.00108e-06
-5.92361e-06
-8.04276e-06
-7.98482e-06
-6.78158e-06
-9.62282e-06
-5.25242e-06
-1.0616e-05
-3.55698e-06
-1.06927e-05
-1.89369e-06
-9.55652e-06
-5.74455e-07
-6.9475e-06
-2.76985e-06
-6.72029e-07
3.41738e-06
-2.1377e-06
8.33411e-06
-3.89019e-06
1.11983e-05
-5.57927e-06
1.22739e-05
-7.01867e-06
1.19811e-05
-8.14287e-06
1.07258e-05
-8.9579e-06
8.83805e-06
-9.50155e-06
6.55961e-06
-9.81616e-06
4.05509e-06
-9.9322e-06
1.43234e-06
-9.8598e-06
-1.23442e-06
-9.58596e-06
-3.88152e-06
-9.07671e-06
-6.43287e-06
-8.28529e-06
-8.77625e-06
-7.169e-06
-1.07391e-05
-5.71795e-06
-1.2067e-05
-3.9975e-06
-1.24132e-05
-2.20053e-06
-1.13535e-05
-6.92255e-07
-8.45578e-06
-3.46211e-06
-8.21144e-07
4.23853e-06
-2.47782e-06
9.99079e-06
-4.29922e-06
1.30197e-05
-5.89415e-06
1.38688e-05
-7.11165e-06
1.31986e-05
-7.94964e-06
1.15638e-05
-8.47694e-06
9.36535e-06
-8.781e-06
6.86367e-06
-8.938e-06
4.2121e-06
-8.99785e-06
1.49219e-06
-8.97763e-06
-1.25464e-06
-8.85941e-06
-3.99975e-06
-8.59127e-06
-6.70101e-06
-8.09305e-06
-9.27446e-06
-7.27124e-06
-1.15609e-05
-6.05022e-06
-1.3288e-05
-4.4278e-06
-1.40356e-05
-2.55839e-06
-1.32229e-05
-8.49246e-07
-1.01649e-05
-4.31136e-06
-1.03219e-06
5.27072e-06
-2.87702e-06
1.18356e-05
-4.6495e-06
1.47922e-05
-5.95734e-06
1.51766e-05
-6.74022e-06
1.39815e-05
-7.09908e-06
1.19227e-05
-7.18518e-06
9.45145e-06
-7.14111e-06
6.8196e-06
-7.0754e-06
4.14639e-06
-7.05452e-06
1.47132e-06
-7.10149e-06
-1.20768e-06
-7.19539e-06
-3.90584e-06
-7.27035e-06
-6.62604e-06
-7.21553e-06
-9.32928e-06
-6.88222e-06
-1.18942e-05
-6.10964e-06
-1.40606e-05
-4.78708e-06
-1.53581e-05
-2.97166e-06
-1.50383e-05
-1.06875e-06
-1.20678e-05
-5.38011e-06
-1.34101e-06
6.61172e-06
-3.32089e-06
1.38155e-05
-4.81374e-06
1.6285e-05
-5.53169e-06
1.58946e-05
-5.59368e-06
1.40435e-05
-5.24606e-06
1.15751e-05
-4.73083e-06
8.93621e-06
-4.23689e-06
6.32566e-06
-3.89202e-06
3.80152e-06
-3.76921e-06
1.3485e-06
-3.89376e-06
-1.08312e-06
-4.24576e-06
-3.55384e-06
-4.75617e-06
-6.11564e-06
-5.298e-06
-8.78745e-06
-5.6782e-06
-1.1514e-05
-5.64443e-06
-1.40944e-05
-4.93517e-06
-1.60674e-05
-3.41831e-06
-1.65552e-05
-1.38481e-06
-1.41013e-05
-6.76492e-06
-1.7797e-06
8.39142e-06
-3.70233e-06
1.57381e-05
-4.48868e-06
1.70714e-05
-4.17653e-06
1.55824e-05
-3.17805e-06
1.3045e-05
-1.90539e-06
1.03024e-05
-6.67975e-07
7.6988e-06
3.33329e-07
5.32436e-06
9.80937e-07
3.15391e-06
1.21411e-06
1.11533e-06
1.01187e-06
-8.80878e-07
3.87417e-07
-2.92939e-06
-6.0549e-07
-5.12273e-06
-1.85414e-06
-7.5388e-06
-3.15807e-06
-1.02101e-05
-4.20061e-06
-1.30518e-05
-4.55253e-06
-1.57155e-05
-3.7782e-06
-1.73295e-05
-1.82485e-06
-1.60547e-05
-8.58977e-06
-2.29677e-06
1.06882e-05
-3.62688e-06
1.70682e-05
-2.98259e-06
1.64271e-05
-1.09063e-06
1.36905e-05
1.26835e-06
1.0686e-05
3.57353e-06
7.99724e-06
5.53048e-06
5.74185e-06
6.99384e-06
3.86099e-06
7.90069e-06
2.24706e-06
8.22688e-06
7.89142e-07
7.96417e-06
-6.18162e-07
7.11307e-06
-2.0783e-06
5.68964e-06
-3.6993e-06
3.74855e-06
-5.59771e-06
1.42856e-06
-7.89011e-06
-9.7665e-07
-1.06466e-05
-2.93498e-06
-1.37571e-05
-3.63884e-06
-1.66256e-05
-2.32675e-06
-1.73668e-05
-1.09165e-05
-2.50252e-06
1.31907e-05
-1.93615e-06
1.65019e-05
1.19316e-06
1.32978e-05
5.11712e-06
9.76652e-06
8.85253e-06
6.95057e-06
1.19934e-05
4.85639e-06
1.4417e-05
3.31826e-06
1.6121e-05
2.15692e-06
1.71395e-05
1.22861e-06
1.75026e-05
4.26006e-07
1.72207e-05
-3.36185e-07
1.62789e-05
-1.13652e-06
1.46411e-05
-2.06156e-06
1.22651e-05
-3.22169e-06
9.14202e-06
-4.76701e-06
5.38365e-06
-6.88826e-06
1.39294e-06
-9.76644e-06
-1.83173e-06
-1.3401e-05
-2.48284e-06
-1.67157e-05
-1.33994e-05
-5.77739e-07
1.37685e-05
4.63783e-06
1.12863e-05
1.10742e-05
6.86144e-06
1.66511e-05
4.18957e-06
2.09801e-05
2.62164e-06
2.4168e-05
1.66847e-06
2.64188e-05
1.06744e-06
2.79117e-05
6.64054e-07
2.87726e-05
3.67683e-07
2.90743e-05
1.24291e-07
2.88406e-05
-1.02495e-07
2.8048e-05
-3.43905e-07
2.66228e-05
-6.36313e-07
2.44351e-05
-1.034e-06
2.1297e-05
-1.62898e-06
1.69896e-05
-2.58082e-06
1.13878e-05
-4.16469e-06
4.87112e-06
-6.88425e-06
-4.69147e-07
-1.13754e-05
-1.38685e-05
1.37685e-05
2.50548e-05
3.19162e-05
3.61058e-05
3.87274e-05
4.03959e-05
4.14633e-05
4.21274e-05
4.24951e-05
4.26194e-05
4.25169e-05
4.2173e-05
4.15366e-05
4.05026e-05
3.88737e-05
3.62928e-05
3.21282e-05
2.52439e-05
1.38685e-05
)
;

boundaryField
{
    movingWall
    {
        type            calculated;
        value           uniform 0;
    }
    fixedWalls
    {
        type            calculated;
        value           uniform 0;
    }
    frontAndBack
    {
        type            empty;
        value           nonuniform 0();
    }
}


// ************************************************************************* //
