/*--------------------------------*- C++ -*----------------------------------*\
  =========                 |
  \\      /  F ield         | OpenFOAM: The Open Source CFD Toolbox
   \\    /   O peration     | Website:  https://openfoam.org
    \\  /    A nd           | Version:  6
     \\/     M anipulation  |
\*---------------------------------------------------------------------------*/
FoamFile
{
    version     2.0;
    format      ascii;
    class       surfaceScalarField;
    location    "0.015";
    object      phi;
}
// * * * * * * * * * * * * * * * * * * * * * * * * * * * * * * * * * * * * * //

dimensions      [0 3 -1 0 0 0 0];

internalField   nonuniform List<scalar> 
760
(
1.43897e-08
-1.43908e-08
-2.06114e-08
3.50004e-08
-1.1074e-07
9.01287e-08
-2.40068e-07
1.29328e-07
-3.88892e-07
1.48824e-07
-5.38271e-07
1.4938e-07
-6.7185e-07
1.3358e-07
-7.76685e-07
1.04834e-07
-8.43486e-07
6.68017e-08
-8.66644e-07
2.3157e-08
-8.44197e-07
-2.24473e-08
-7.77855e-07
-6.6341e-08
-6.73074e-07
-1.04782e-07
-5.39132e-07
-1.33942e-07
-3.89132e-07
-1.5e-07
-2.397e-07
-1.49432e-07
-1.10048e-07
-1.29652e-07
-2.00075e-08
-9.00398e-08
1.46217e-08
-3.46288e-08
1.46222e-08
-3.23159e-08
1.79259e-08
-1.74095e-07
1.7678e-07
-4.2228e-07
3.38314e-07
-7.47242e-07
4.54291e-07
-1.10965e-06
5.11228e-07
-1.46912e-06
5.08855e-07
-1.7892e-06
4.53658e-07
-2.04005e-06
3.55683e-07
-2.19979e-06
2.26539e-07
-2.25504e-06
7.84062e-08
-2.20115e-06
-7.63358e-08
-2.04231e-06
-2.25179e-07
-1.7916e-06
-3.5549e-07
-1.47088e-06
-4.54659e-07
-1.11027e-06
-5.10614e-07
-7.46708e-07
-5.12992e-07
-4.21068e-07
-4.55292e-07
-1.72947e-07
-3.3816e-07
-3.17943e-08
-1.75782e-07
-1.71715e-08
-8.85882e-08
1.06515e-07
-3.46136e-07
4.34328e-07
-7.45453e-07
7.37632e-07
-1.24122e-06
9.50059e-07
-1.7794e-06
1.04941e-06
-2.30542e-06
1.03487e-06
-2.76987e-06
9.18109e-07
-3.1321e-06
7.17917e-07
-3.36215e-06
4.56582e-07
-3.44162e-06
1.57878e-07
-3.36413e-06
-1.53826e-07
-3.13545e-06
-4.53857e-07
-2.77356e-06
-7.17384e-07
-2.30836e-06
-9.19855e-07
-1.78084e-06
-1.03813e-06
-1.24101e-06
-1.05282e-06
-7.44133e-07
-9.52168e-07
-3.44677e-07
-7.37616e-07
-8.78455e-08
-4.32614e-07
-1.05017e-07
-1.4013e-07
2.46644e-07
-5.11402e-07
8.056e-07
-1.05807e-06
1.2843e-06
-1.71491e-06
1.6069e-06
-2.41276e-06
1.74726e-06
-3.08504e-06
1.70714e-06
-3.67287e-06
1.50594e-06
-4.12843e-06
1.17348e-06
-4.41672e-06
7.44867e-07
-4.51633e-06
2.57488e-07
-4.41981e-06
-2.50348e-07
-4.13379e-06
-7.39878e-07
-3.67907e-06
-1.1721e-06
-3.09053e-06
-1.5084e-06
-2.41632e-06
-1.71234e-06
-1.71608e-06
-1.75306e-06
-1.05733e-06
-1.61092e-06
-5.09954e-07
-1.28499e-06
-1.39243e-07
-8.03325e-07
-2.44259e-07
-1.87874e-07
4.34518e-07
-6.70447e-07
1.28817e-06
-1.36287e-06
1.97673e-06
-2.17726e-06
2.42129e-06
-3.02784e-06
2.59784e-06
-3.83643e-06
2.51573e-06
-4.53645e-06
2.20596e-06
-5.0752e-06
1.71223e-06
-5.41482e-06
1.08449e-06
-5.53241e-06
3.75074e-07
-5.41992e-06
-3.6283e-07
-5.08425e-06
-1.07556e-06
-4.54741e-06
-1.70893e-06
-3.84696e-06
-2.20885e-06
-3.0359e-06
-2.5234e-06
-2.18177e-06
-2.60719e-06
-1.36404e-06
-2.42865e-06
-6.69666e-07
-1.97936e-06
-1.87008e-07
-1.28598e-06
-4.31268e-07
-2.34784e-07
6.69302e-07
-8.29382e-07
1.88277e-06
-1.66899e-06
2.81634e-06
-2.64074e-06
3.39304e-06
-3.64083e-06
3.59793e-06
-4.57955e-06
3.45445e-06
-5.38393e-06
3.01034e-06
-5.99842e-06
2.32672e-06
-6.38425e-06
1.47031e-06
-6.51836e-06
5.09187e-07
-6.39261e-06
-4.88585e-07
-6.01351e-06
-1.45466e-06
-5.40282e-06
-2.31962e-06
-4.59868e-06
-3.01299e-06
-3.65689e-06
-3.46518e-06
-2.65156e-06
-3.61253e-06
-1.67416e-06
-3.40605e-06
-8.3039e-07
-2.82313e-06
-2.34265e-07
-1.88211e-06
-6.65532e-07
-2.83879e-07
9.5318e-07
-9.95164e-07
2.59406e-06
-1.98611e-06
3.80728e-06
-3.1161e-06
4.52304e-06
-4.26211e-06
4.74393e-06
-5.32346e-06
4.51581e-06
-6.22273e-06
3.90961e-06
-6.90397e-06
3.00796e-06
-7.32984e-06
1.89617e-06
-7.47874e-06
6.58089e-07
-7.34292e-06
-6.24401e-07
-6.92789e-06
-1.86968e-06
-6.25339e-06
-2.99413e-06
-5.35567e-06
-3.9107e-06
-4.29073e-06
-4.53013e-06
-3.13725e-06
-4.76601e-06
-1.99826e-06
-4.54504e-06
-9.99629e-07
-3.82176e-06
-2.84223e-07
-2.59751e-06
-9.49755e-07
-3.37963e-07
1.29114e-06
-1.17426e-06
3.43035e-06
-2.32213e-06
4.95515e-06
-3.60945e-06
5.81036e-06
-4.89317e-06
6.02765e-06
-6.06346e-06
5.6861e-06
-7.0417e-06
4.88785e-06
-7.77522e-06
3.74148e-06
-8.2313e-06
2.35226e-06
-8.39198e-06
8.1876e-07
-8.2506e-06
-7.65777e-07
-7.81086e-06
-2.30942e-06
-7.08823e-06
-3.71676e-06
-6.11373e-06
-4.8852e-06
-4.93963e-06
-5.70422e-06
-3.64583e-06
-6.05981e-06
-2.34506e-06
-5.84581e-06
-1.18442e-06
-4.9824e-06
-3.39906e-07
-3.44202e-06
-1.28966e-06
-3.99785e-07
1.69093e-06
-1.37242e-06
4.40298e-06
-2.6821e-06
6.26483e-06
-4.12016e-06
7.24842e-06
-5.52371e-06
7.43121e-06
-6.77757e-06
6.93997e-06
-7.80737e-06
5.91764e-06
-8.56921e-06
4.50333e-06
-9.03946e-06
2.82252e-06
-9.2066e-06
9.85891e-07
-9.06611e-06
-9.06265e-07
-8.61892e-06
-2.75661e-06
-7.87333e-06
-4.46235e-06
-6.85054e-06
-5.908e-06
-5.59336e-06
-6.96141e-06
-4.17709e-06
-7.47607e-06
-2.72024e-06
-7.30267e-06
-1.39104e-06
-6.3116e-06
-4.04296e-07
-4.42877e-06
-1.69396e-06
-4.726e-07
2.16353e-06
-1.59526e-06
5.52564e-06
-3.06776e-06
7.73734e-06
-4.63879e-06
8.81945e-06
-6.12796e-06
8.92037e-06
-7.42181e-06
8.23381e-06
-8.45869e-06
6.95453e-06
-9.21123e-06
5.25586e-06
-9.6707e-06
3.28199e-06
-9.83563e-06
1.15083e-06
-9.70496e-06
-1.03694e-06
-9.27579e-06
-3.18578e-06
-8.54579e-06
-5.19235e-06
-7.5204e-06
-6.93339e-06
-6.22495e-06
-8.25686e-06
-4.72114e-06
-8.97988e-06
-3.12564e-06
-8.89817e-06
-1.62548e-06
-7.81177e-06
-4.80871e-07
-5.57337e-06
-2.17483e-06
-5.61193e-07
2.72472e-06
-1.84927e-06
6.81372e-06
-3.47679e-06
9.36485e-06
-5.14384e-06
1.04865e-05
-6.6592e-06
1.04357e-05
-7.92332e-06
9.49793e-06
-8.89974e-06
7.93095e-06
-9.58761e-06
5.94374e-06
-1.00001e-05
3.6945e-06
-1.01499e-05
1.30057e-06
-1.00407e-05
-1.14612e-06
-9.66493e-06
-3.56154e-06
-9.006e-06
-5.85128e-06
-8.04672e-06
-7.89267e-06
-6.78453e-06
-9.51905e-06
-5.25441e-06
-1.051e-05
-3.55814e-06
-1.05944e-05
-1.89422e-06
-9.47569e-06
-5.74592e-07
-6.893e-06
-2.74942e-06
-6.73583e-07
3.3983e-06
-2.14293e-06
8.28306e-06
-3.90045e-06
1.11224e-05
-5.59528e-06
1.21813e-05
-7.04057e-06
1.1881e-05
-8.17033e-06
1.06277e-05
-8.99014e-06
8.75076e-06
-9.53742e-06
6.49102e-06
-9.85424e-06
4.01131e-06
-9.97088e-06
1.41722e-06
-9.89744e-06
-1.21956e-06
-9.62098e-06
-3.838e-06
-9.10774e-06
-6.36452e-06
-8.31128e-06
-8.68912e-06
-7.18934e-06
-1.0641e-05
-5.73249e-06
-1.19668e-05
-4.00659e-06
-1.23203e-05
-2.20504e-06
-1.12772e-05
-6.93548e-07
-8.40449e-06
-3.44297e-06
-8.23782e-07
4.22209e-06
-2.48672e-06
9.946e-06
-4.31675e-06
1.29524e-05
-5.92161e-06
1.37862e-05
-7.14939e-06
1.31088e-05
-7.99715e-06
1.14754e-05
-8.53291e-06
9.28652e-06
-8.84349e-06
6.8016e-06
-9.00454e-06
4.17236e-06
-9.06564e-06
1.47832e-06
-9.04376e-06
-1.24144e-06
-8.92109e-06
-3.96067e-06
-8.64608e-06
-6.63953e-06
-8.13913e-06
-9.19608e-06
-7.30742e-06
-1.14727e-05
-6.07618e-06
-1.31981e-05
-4.4441e-06
-1.39524e-05
-2.56651e-06
-1.31548e-05
-8.51593e-07
-1.01194e-05
-4.29456e-06
-1.03564e-06
5.25773e-06
-2.88869e-06
1.1799e-05
-4.67256e-06
1.47363e-05
-5.9936e-06
1.51072e-05
-6.79027e-06
1.39055e-05
-7.16232e-06
1.18475e-05
-7.25994e-06
9.38415e-06
-7.2248e-06
6.76646e-06
-7.16471e-06
4.11226e-06
-7.14566e-06
1.45927e-06
-7.19051e-06
-1.1966e-06
-7.27852e-06
-3.87266e-06
-7.34427e-06
-6.57377e-06
-7.2777e-06
-9.26266e-06
-6.93105e-06
-1.18193e-05
-6.14469e-06
-1.39844e-05
-4.80909e-06
-1.5288e-05
-2.98263e-06
-1.49813e-05
-1.07193e-06
-1.20301e-05
-5.36649e-06
-1.34487e-06
6.60259e-06
-3.33402e-06
1.37882e-05
-4.83986e-06
1.62421e-05
-5.57304e-06
1.58404e-05
-5.65109e-06
1.39835e-05
-5.31898e-06
1.15154e-05
-4.81739e-06
8.88256e-06
-4.3341e-06
6.28317e-06
-3.99599e-06
3.77415e-06
-3.87546e-06
1.33875e-06
-3.99764e-06
-1.07441e-06
-4.34279e-06
-3.52751e-06
-4.84242e-06
-6.07414e-06
-5.37048e-06
-8.73461e-06
-5.73506e-06
-1.14548e-05
-5.68516e-06
-1.40343e-05
-4.9607e-06
-1.60125e-05
-3.43101e-06
-1.6511e-05
-1.38849e-06
-1.40726e-05
-6.75498e-06
-1.78347e-06
8.38606e-06
-3.71536e-06
1.57201e-05
-4.51493e-06
1.70417e-05
-4.21855e-06
1.5544e-05
-3.23691e-06
1.30019e-05
-1.98069e-06
1.02592e-05
-7.57866e-07
7.65974e-06
2.31969e-07
5.29333e-06
8.72235e-07
3.13388e-06
1.10284e-06
1.10815e-06
9.03019e-07
-8.74597e-07
2.85793e-07
-2.91029e-06
-6.95718e-07
-5.09262e-06
-1.92979e-06
-7.50054e-06
-3.21721e-06
-1.01673e-05
-4.24278e-06
-1.30088e-05
-4.57882e-06
-1.56764e-05
-3.7912e-06
-1.72986e-05
-1.82859e-06
-1.60352e-05
-8.58357e-06
-2.29994e-06
1.0686e-05
-3.63816e-06
1.70583e-05
-3.00588e-06
1.64094e-05
-1.12863e-06
1.36668e-05
1.21431e-06
1.06589e-05
3.50365e-06
7.96983e-06
5.4464e-06
5.71698e-06
6.89854e-06
3.84119e-06
7.79815e-06
2.23427e-06
8.12174e-06
7.84554e-07
7.8613e-06
-6.14162e-07
7.01716e-06
-2.06614e-06
5.60471e-06
-3.68018e-06
3.67766e-06
-5.57349e-06
1.37348e-06
-7.86317e-06
-1.01559e-06
-1.06197e-05
-2.95898e-06
-1.3733e-05
-3.65053e-06
-1.6607e-05
-2.33005e-06
-1.73557e-05
-1.09136e-05
-2.50458e-06
1.31906e-05
-1.9442e-06
1.64979e-05
1.17559e-06
1.32896e-05
5.08739e-06
9.75498e-06
8.80923e-06
6.93711e-06
1.19364e-05
4.84261e-06
1.43477e-05
3.30571e-06
1.6042e-05
2.14693e-06
1.70541e-05
1.22217e-06
1.74149e-05
4.23718e-07
1.71349e-05
-3.34133e-07
1.61991e-05
-1.13036e-06
1.45709e-05
-2.05191e-06
1.22069e-05
-3.20953e-06
9.09729e-06
-4.75357e-06
5.35254e-06
-6.87495e-06
1.37424e-06
-9.75475e-06
-1.84051e-06
-1.33923e-05
-2.48517e-06
-1.6711e-05
-1.33988e-05
-5.78373e-07
1.37689e-05
4.63392e-06
1.12856e-05
1.10642e-05
6.85933e-06
1.66329e-05
4.18632e-06
2.09522e-05
2.61774e-06
2.41304e-05
1.66444e-06
2.63723e-05
1.06376e-06
2.78581e-05
6.61136e-07
2.87145e-05
3.65816e-07
2.90146e-05
1.23649e-07
2.87823e-05
-1.01866e-07
2.7994e-05
-3.42079e-07
2.65756e-05
-6.33481e-07
2.43965e-05
-1.03045e-06
2.1268e-05
-1.62508e-06
1.69701e-05
-2.57702e-06
1.13768e-05
-4.16143e-06
4.86646e-06
-6.882e-06
-4.70076e-07
-1.13745e-05
-1.38689e-05
1.37689e-05
2.50546e-05
3.19139e-05
3.61002e-05
3.8718e-05
4.03824e-05
4.14462e-05
4.21073e-05
4.24731e-05
4.25968e-05
4.24949e-05
4.21528e-05
4.15194e-05
4.04889e-05
3.88638e-05
3.62868e-05
3.21254e-05
2.52434e-05
1.38689e-05
)
;

boundaryField
{
    movingWall
    {
        type            calculated;
        value           uniform 0;
    }
    fixedWalls
    {
        type            calculated;
        value           uniform 0;
    }
    frontAndBack
    {
        type            empty;
        value           nonuniform 0();
    }
}


// ************************************************************************* //
