/*--------------------------------*- C++ -*----------------------------------*\
  =========                 |
  \\      /  F ield         | OpenFOAM: The Open Source CFD Toolbox
   \\    /   O peration     | Website:  https://openfoam.org
    \\  /    A nd           | Version:  6
     \\/     M anipulation  |
\*---------------------------------------------------------------------------*/
FoamFile
{
    version     2.0;
    format      ascii;
    class       surfaceScalarField;
    location    "0.09";
    object      phi;
}
// * * * * * * * * * * * * * * * * * * * * * * * * * * * * * * * * * * * * * //

dimensions      [0 3 -1 0 0 0 0];

internalField   nonuniform List<scalar> 
760
(
1.47383e-08
-1.4763e-08
-2.09026e-08
3.5641e-08
-1.12832e-07
9.19297e-08
-2.44805e-07
1.31973e-07
-3.96749e-07
1.51944e-07
-5.49363e-07
1.52614e-07
-6.85955e-07
1.36592e-07
-7.93279e-07
1.07323e-07
-8.61784e-07
6.85055e-08
-8.85656e-07
2.3872e-08
-8.62815e-07
-2.28405e-08
-7.94966e-07
-6.78494e-08
-6.87687e-07
-1.07279e-07
-5.50523e-07
-1.37164e-07
-3.96969e-07
-1.53555e-07
-2.44125e-07
-1.52844e-07
-1.117e-07
-1.32424e-07
-1.99512e-08
-9.17488e-08
1.51075e-08
-3.50586e-08
1.51074e-08
-3.30355e-08
1.82726e-08
-1.77834e-07
1.80439e-07
-4.31277e-07
3.45373e-07
-7.63192e-07
4.63887e-07
-1.13349e-06
5.22245e-07
-1.50101e-06
5.20131e-07
-1.82849e-06
4.64074e-07
-2.08538e-06
3.64214e-07
-2.24918e-06
2.32304e-07
-2.30605e-06
8.07415e-08
-2.25109e-06
-7.7796e-08
-2.08852e-06
-2.3042e-07
-1.83174e-06
-3.64063e-07
-1.50323e-06
-4.65675e-07
-1.13398e-06
-5.22805e-07
-7.61977e-07
-5.24844e-07
-4.29138e-07
-4.65263e-07
-1.75915e-07
-3.44972e-07
-3.21767e-08
-1.78797e-07
-1.70692e-08
-9.05991e-08
1.08872e-07
-3.53654e-07
4.43494e-07
-7.61355e-07
7.53074e-07
-1.26756e-06
9.70091e-07
-1.81725e-06
1.07194e-06
-2.35481e-06
1.05769e-06
-2.82979e-06
9.39057e-07
-3.20057e-06
7.34995e-07
-3.43634e-06
4.6807e-07
-3.51808e-06
1.62486e-07
-3.43909e-06
-1.56789e-07
-3.20517e-06
-4.64339e-07
-2.83473e-06
-7.345e-07
-2.35852e-06
-9.41885e-07
-1.81868e-06
-1.06265e-06
-1.26658e-06
-1.07695e-06
-7.58859e-07
-9.72983e-07
-3.51154e-07
-7.52677e-07
-8.93774e-08
-4.40573e-07
-1.06446e-07
-1.43183e-07
2.52055e-07
-5.21947e-07
8.22258e-07
-1.07934e-06
1.31047e-06
-1.74907e-06
1.63982e-06
-2.46084e-06
1.78371e-06
-3.14693e-06
1.74377e-06
-3.74732e-06
1.53945e-06
-4.21309e-06
1.20077e-06
-4.50827e-06
7.63247e-07
-4.61073e-06
2.64946e-07
-4.51262e-06
-2.54902e-07
-4.22057e-06
-7.56383e-07
-3.75587e-06
-1.1992e-06
-3.15428e-06
-1.54348e-06
-2.46526e-06
-1.75167e-06
-1.74999e-06
-1.79222e-06
-1.07758e-06
-1.64539e-06
-5.19376e-07
-1.31088e-06
-1.41712e-07
-8.18237e-07
-2.48159e-07
-1.91556e-07
4.4361e-07
-6.82737e-07
1.31344e-06
-1.38709e-06
2.01483e-06
-2.21549e-06
2.46822e-06
-3.08105e-06
2.64927e-06
-3.90448e-06
2.5672e-06
-4.61803e-06
2.25301e-06
-5.16792e-06
1.75066e-06
-5.51525e-06
1.11058e-06
-5.63631e-06
3.86008e-07
-5.52259e-06
-3.68622e-07
-5.1809e-06
-1.09808e-06
-4.63366e-06
-1.74644e-06
-3.91931e-06
-2.25783e-06
-3.09215e-06
-2.57882e-06
-2.22134e-06
-2.66303e-06
-1.38812e-06
-2.47861e-06
-6.81127e-07
-2.01788e-06
-1.90101e-07
-1.30926e-06
-4.38259e-07
-2.386e-07
6.8221e-07
-8.4183e-07
1.91667e-06
-1.69316e-06
2.86615e-06
-2.67854e-06
3.4536e-06
-3.69321e-06
3.66394e-06
-4.6465e-06
3.52049e-06
-5.46442e-06
3.07093e-06
-6.09033e-06
2.37657e-06
-6.48443e-06
1.50468e-06
-6.6228e-06
5.24378e-07
-6.49669e-06
-4.9473e-07
-6.11243e-06
-1.48235e-06
-5.49201e-06
-2.36685e-06
-4.67434e-06
-3.07551e-06
-3.71641e-06
-3.53675e-06
-2.69394e-06
-3.6855e-06
-1.70025e-06
-3.47229e-06
-8.42929e-07
-2.8752e-06
-2.37667e-07
-1.91452e-06
-6.75926e-07
-2.87285e-07
9.69495e-07
-1.00601e-06
2.6354e-06
-2.00692e-06
3.86706e-06
-3.14856e-06
4.59524e-06
-4.30727e-06
4.82264e-06
-5.3817e-06
4.59492e-06
-6.29359e-06
3.98282e-06
-6.98599e-06
3.06897e-06
-7.42054e-06
1.93922e-06
-7.57469e-06
6.78534e-07
-7.43999e-06
-6.29435e-07
-7.02154e-06
-1.9008e-06
-6.3391e-06
-3.04928e-06
-5.42947e-06
-3.98514e-06
-4.34961e-06
-4.6166e-06
-3.17973e-06
-4.85539e-06
-2.02469e-06
-4.62733e-06
-1.01241e-06
-3.88748e-06
-2.87681e-07
-2.63925e-06
-9.63607e-07
-3.40397e-07
1.30989e-06
-1.1817e-06
3.47671e-06
-2.33624e-06
5.0216e-06
-3.63168e-06
5.89068e-06
-4.92485e-06
6.11582e-06
-6.10564e-06
5.77571e-06
-7.09479e-06
4.97197e-06
-7.83877e-06
3.81295e-06
-8.30383e-06
2.40429e-06
-8.471e-06
8.45695e-07
-8.33276e-06
-7.67673e-07
-7.89221e-06
-2.34135e-06
-7.16454e-06
-3.77695e-06
-6.18098e-06
-4.96871e-06
-4.99447e-06
-5.80311e-06
-3.68615e-06
-6.16371e-06
-2.37053e-06
-5.94295e-06
-1.19684e-06
-5.06116e-06
-3.43259e-07
-3.49283e-06
-1.30687e-06
-4.00687e-07
1.71058e-06
-1.37471e-06
4.45073e-06
-2.68638e-06
6.33327e-06
-4.12769e-06
7.33199e-06
-5.53635e-06
7.52448e-06
-6.79729e-06
7.03665e-06
-7.83572e-06
6.0104e-06
-8.60698e-06
4.58421e-06
-9.08642e-06
2.88372e-06
-9.26145e-06
1.02072e-06
-9.12657e-06
-9.02545e-07
-8.6819e-06
-2.78602e-06
-7.93516e-06
-4.52369e-06
-6.90731e-06
-5.99656e-06
-5.64141e-06
-7.06902e-06
-4.2136e-06
-7.59151e-06
-2.74394e-06
-7.41262e-06
-1.40283e-06
-6.40227e-06
-4.07499e-07
-4.48816e-06
-1.71436e-06
-4.71441e-07
2.18202e-06
-1.59085e-06
5.57014e-06
-3.05958e-06
7.80199e-06
-4.62813e-06
8.90054e-06
-6.11741e-06
9.01376e-06
-7.41445e-06
8.33369e-06
-8.45737e-06
7.05333e-06
-9.21803e-06
5.34487e-06
-9.68673e-06
3.35242e-06
-9.86092e-06
1.19492e-06
-9.73851e-06
-1.02496e-06
-9.31563e-06
-3.2089e-06
-8.58908e-06
-5.25024e-06
-7.56361e-06
-7.02204e-06
-6.26419e-06
-8.36843e-06
-4.75282e-06
-9.10288e-06
-3.14729e-06
-9.01815e-06
-1.63669e-06
-7.91287e-06
-4.84012e-07
-5.64084e-06
-2.19838e-06
-5.5751e-07
2.73953e-06
-1.83699e-06
6.84962e-06
-3.45443e-06
9.41943e-06
-5.11304e-06
1.05591e-05
-6.62353e-06
1.05243e-05
-7.88701e-06
9.59717e-06
-8.86678e-06
8.0331e-06
-9.56125e-06
6.03933e-06
-9.98265e-06
3.77382e-06
-1.01426e-05
1.3549e-06
-1.00441e-05
-1.12352e-06
-9.67832e-06
-3.57464e-06
-9.02773e-06
-5.90083e-06
-8.07396e-06
-7.9758e-06
-6.81346e-06
-9.62893e-06
-5.28069e-06
-1.06356e-05
-3.57786e-06
-1.0721e-05
-1.90525e-06
-9.58548e-06
-5.77898e-07
-6.96819e-06
-2.77627e-06
-6.67027e-07
3.40656e-06
-2.12219e-06
8.30478e-06
-3.86362e-06
1.11609e-05
-5.54476e-06
1.22403e-05
-6.981e-06
1.19605e-05
-8.10686e-06
1.0723e-05
-8.92746e-06
8.8537e-06
-9.47945e-06
6.59133e-06
-9.80409e-06
4.09845e-06
-9.93097e-06
1.48178e-06
-9.86954e-06
-1.18495e-06
-9.60606e-06
-3.83812e-06
-9.10566e-06
-6.40123e-06
-8.32047e-06
-8.761e-06
-7.20648e-06
-1.07429e-05
-5.75278e-06
-1.20894e-05
-4.02459e-06
-1.24492e-05
-2.21644e-06
-1.13936e-05
-6.97365e-07
-8.48727e-06
-3.47364e-06
-8.14182e-07
4.22074e-06
-2.45788e-06
9.94848e-06
-4.26724e-06
1.29702e-05
-5.85502e-06
1.38281e-05
-7.07123e-06
1.31767e-05
-7.91282e-06
1.15646e-05
-8.447e-06
9.38788e-06
-8.75976e-06
6.90409e-06
-8.92629e-06
4.26499e-06
-8.996e-06
1.55149e-06
-8.98574e-06
-1.19521e-06
-8.87736e-06
-3.9465e-06
-8.61848e-06
-6.66012e-06
-8.12791e-06
-9.25157e-06
-7.31059e-06
-1.15602e-05
-6.08911e-06
-1.33108e-05
-4.4601e-06
-1.40782e-05
-2.57873e-06
-1.3275e-05
-8.56335e-07
-1.02097e-05
-4.32997e-06
-1.02312e-06
5.24386e-06
-2.85353e-06
1.17789e-05
-4.61507e-06
1.47318e-05
-5.91875e-06
1.51318e-05
-6.70365e-06
1.39616e-05
-7.06841e-06
1.19294e-05
-7.16198e-06
9.48145e-06
-7.12543e-06
6.86753e-06
-7.06666e-06
4.20622e-06
-7.05228e-06
1.53711e-06
-7.10579e-06
-1.1417e-06
-7.20684e-06
-3.84545e-06
-7.28972e-06
-6.57723e-06
-7.24307e-06
-9.29822e-06
-6.91663e-06
-1.18867e-05
-6.14718e-06
-1.40803e-05
-4.82141e-06
-1.5404e-05
-2.99547e-06
-1.51009e-05
-1.07796e-06
-1.21272e-05
-5.40793e-06
-1.3301e-06
6.57396e-06
-3.29656e-06
1.37454e-05
-4.783e-06
1.62182e-05
-5.50249e-06
1.58512e-05
-5.57096e-06
1.40301e-05
-5.2311e-06
1.15895e-05
-4.72234e-06
8.97269e-06
-4.23248e-06
6.37767e-06
-3.88942e-06
3.86316e-06
-3.76706e-06
1.41475e-06
-3.89203e-06
-1.01672e-06
-4.2458e-06
-3.49169e-06
-4.76034e-06
-6.06268e-06
-5.30899e-06
-8.74957e-06
-5.69771e-06
-1.14979e-05
-5.67157e-06
-1.41064e-05
-4.96511e-06
-1.61104e-05
-3.44268e-06
-1.66234e-05
-1.3958e-06
-1.41741e-05
-6.80373e-06
-1.76839e-06
8.34235e-06
-3.68313e-06
1.56601e-05
-4.4719e-06
1.7007e-05
-4.16906e-06
1.55484e-05
-3.18118e-06
1.30422e-05
-1.91624e-06
1.03246e-05
-6.81733e-07
7.73819e-06
3.2148e-07
5.37446e-06
9.74711e-07
3.20993e-06
1.21555e-06
1.17391e-06
1.02109e-06
-8.22263e-07
4.02586e-07
-2.87319e-06
-5.8803e-07
-5.07207e-06
-1.83937e-06
-7.49823e-06
-3.1512e-06
-1.01861e-05
-4.20512e-06
-1.30525e-05
-4.56762e-06
-1.57479e-05
-3.7969e-06
-1.73941e-05
-1.83611e-06
-1.61349e-05
-8.63985e-06
-2.28916e-06
1.06315e-05
-3.62334e-06
1.69943e-05
-2.99333e-06
1.6377e-05
-1.11759e-06
1.36727e-05
1.22985e-06
1.06948e-05
3.53106e-06
8.02336e-06
5.4916e-06
5.77765e-06
6.9646e-06
3.90146e-06
7.88515e-06
2.28938e-06
8.22711e-06
8.31949e-07
7.98033e-06
-5.75483e-07
7.14339e-06
-2.03625e-06
5.73028e-06
-3.65896e-06
3.79355e-06
-5.5615e-06
1.47015e-06
-7.86272e-06
-9.46603e-07
-1.06357e-05
-2.92188e-06
-1.37726e-05
-3.64123e-06
-1.66747e-05
-2.33411e-06
-1.7442e-05
-1.0974e-05
-2.50734e-06
1.31389e-05
-1.9617e-06
1.64486e-05
1.14412e-06
1.32711e-05
5.05131e-06
9.76547e-06
8.78061e-06
6.96546e-06
1.19254e-05
4.87854e-06
1.43605e-05
3.34258e-06
1.60809e-05
2.18108e-06
1.71184e-05
1.25191e-06
1.75017e-05
4.48575e-07
1.72401e-05
-3.13828e-07
1.63176e-05
-1.11378e-06
1.46967e-05
-2.03805e-06
1.2333e-05
-3.19776e-06
9.21477e-06
-4.74454e-06
5.45106e-06
-6.87203e-06
1.44378e-06
-9.76536e-06
-1.80506e-06
-1.34259e-05
-2.47781e-06
-1.67692e-05
-1.34518e-05
-6.0536e-07
1.37442e-05
4.5794e-06
1.12639e-05
1.09957e-05
6.85488e-06
1.6566e-05
4.19518e-06
2.08998e-05
2.63161e-06
2.40999e-05
1.67842e-06
2.63665e-05
1.07603e-06
2.78763e-05
6.71244e-07
2.87544e-05
3.73816e-07
2.90732e-05
1.29813e-07
2.88564e-05
-9.7106e-08
2.80808e-05
-3.38141e-07
2.66724e-05
-6.29635e-07
2.45005e-05
-1.02589e-06
2.13752e-05
-1.61921e-06
1.70736e-05
-2.57042e-06
1.14661e-05
-4.15788e-06
4.92927e-06
-6.88907e-06
-4.42506e-07
-1.13975e-05
-1.38943e-05
1.37442e-05
2.50081e-05
3.1863e-05
3.60581e-05
3.86898e-05
4.03682e-05
4.14442e-05
4.21154e-05
4.24893e-05
4.26191e-05
4.2522e-05
4.21838e-05
4.15542e-05
4.05283e-05
3.89091e-05
3.63387e-05
3.21808e-05
2.52917e-05
1.38943e-05
)
;

boundaryField
{
    movingWall
    {
        type            calculated;
        value           uniform 0;
    }
    fixedWalls
    {
        type            calculated;
        value           uniform 0;
    }
    frontAndBack
    {
        type            empty;
        value           nonuniform 0();
    }
}


// ************************************************************************* //
