/*--------------------------------*- C++ -*----------------------------------*\
  =========                 |
  \\      /  F ield         | OpenFOAM: The Open Source CFD Toolbox
   \\    /   O peration     | Website:  https://openfoam.org
    \\  /    A nd           | Version:  6
     \\/     M anipulation  |
\*---------------------------------------------------------------------------*/
FoamFile
{
    version     2.0;
    format      ascii;
    class       volScalarField;
    location    "0.045";
    object      p;
}
// * * * * * * * * * * * * * * * * * * * * * * * * * * * * * * * * * * * * * //

dimensions      [0 2 -2 0 0 0 0];

internalField   nonuniform List<scalar> 
400
(
3.57799e-08
-0.00501284
-0.0110088
-0.0153023
-0.0164182
-0.0137353
-0.00724739
0.00261956
0.0151459
0.029411
0.0443599
0.058863
0.0717838
0.0820656
0.0888463
0.0916059
0.0903469
0.0857902
0.079583
0.0745366
0.00495441
-0.000209656
-0.00489226
-0.00775356
-0.00809378
-0.00547165
0.000147151
0.00845436
0.0188976
0.0307477
0.0431543
0.055201
0.0659697
0.074619
0.0804784
0.0831608
0.0826953
0.079603
0.0747325
0.0695514
0.0113226
0.00415428
-0.000947255
-0.003573
-0.00375602
-0.00126923
0.0038629
0.011347
0.0207005
0.0312956
0.0423968
0.0532055
0.0629146
0.0707759
0.0761779
0.0787362
0.0784122
0.0755107
0.0701629
0.0629458
0.0168891
0.0069623
0.000555552
-0.00250685
-0.0028674
-0.000495392
0.00449056
0.0117536
0.0208161
0.0310854
0.0418727
0.0524234
0.0619606
0.0697403
0.0751177
0.0776287
0.0771182
0.0736956
0.0669161
0.0568392
0.020277
0.00739136
-0.000601072
-0.00429807
-0.00487492
-0.00247681
0.00267534
0.0101777
0.0195268
0.0301306
0.0413099
0.0523133
0.0623473
0.0706213
0.076403
0.0791004
0.0784128
0.0742653
0.0657132
0.052481
0.0204635
0.00447553
-0.00521812
-0.00956342
-0.0102395
-0.00755958
-0.00185387
0.00639064
0.0166241
0.0282325
0.0405205
0.0527113
0.0639606
0.0733897
0.0801323
0.08342
0.0827698
0.0779093
0.0674081
0.0507419
0.0165075
-0.00278337
-0.0142196
-0.0190929
-0.0196145
-0.0162792
-0.00954078
1.5729e-05
0.0117807
0.0251055
0.0392664
0.0534444
0.0667222
0.0781
0.0865316
0.0910159
0.0908301
0.0854547
0.0729102
0.0524268
0.00735471
-0.0155092
-0.0286583
-0.033795
-0.0337554
-0.0292575
-0.0209039
-0.00939289
0.00460042
0.0203934
0.0372369
0.0542713
0.0704993
0.0847788
0.0958407
0.102383
0.103357
0.0978962
0.0833145
0.0585158
-0.0083209
-0.0350851
-0.0498159
-0.0547652
-0.0535622
-0.0472251
-0.0365443
-0.0223472
-0.00537103
0.013684
0.0340663
0.0548991
0.0751209
0.0934443
0.108342
0.118131
0.12132
0.116528
0.100084
0.070384
-0.032264
-0.0632832
-0.0792804
-0.0833053
-0.0800537
-0.0709653
-0.057073
-0.0393478
-0.0185727
0.00457101
0.0293779
0.055007
0.0803806
0.104093
0.124345
0.138994
0.145947
0.143063
0.125245
0.0900354
-0.0668308
-0.102432
-0.119027
-0.120915
-0.114291
-0.101195
-0.0829714
-0.0607393
-0.0352912
-0.00722541
0.0228796
0.0543106
0.0860663
0.1167
0.144169
0.165814
0.178767
0.179778
0.161641
0.12042
-0.115323
-0.155671
-0.171514
-0.169238
-0.157227
-0.138365
-0.114369
-0.0864888
-0.0554518
-0.0216725
0.0145198
0.0526784
0.0920306
0.131238
0.168126
0.199532
0.221653
0.229687
0.213308
0.165945
-0.182654
-0.227375
-0.239774
-0.229927
-0.209448
-0.182345
-0.150727
-0.115885
-0.0783475
-0.0381869
0.00468726
0.050287
0.0982896
0.147714
0.196496
0.241127
0.276818
0.296743
0.286029
0.233394
-0.2768
-0.323868
-0.327448
-0.304306
-0.270701
-0.231948
-0.190409
-0.147184
-0.102352
-0.0554056
-0.00561006
0.047748
0.105085
0.166141
0.229397
0.291421
0.346668
0.385986
0.388219
0.33375
-0.411898
-0.454514
-0.438469
-0.392562
-0.339046
-0.284225
-0.230172
-0.177273
-0.124719
-0.0710872
-0.014718
0.0460735
0.112775
0.186316
0.26639
0.350497
0.43318
0.503336
0.532109
0.485747
-0.61387
-0.632802
-0.576052
-0.492413
-0.409756
-0.333742
-0.264816
-0.201612
-0.141721
-0.0823569
-0.0206379
0.0463421
0.121458
0.207344
0.305817
0.416768
0.536721
0.654548
0.734521
0.721439
-0.930746
-0.876573
-0.740885
-0.598095
-0.474964
-0.372749
-0.28775
-0.215025
-0.149522
-0.0865704
-0.0218279
0.0489829
0.130336
0.22706
0.344205
0.486227
0.65483
0.843193
1.01658
1.09552
-1.47232
-1.20826
-0.921804
-0.693518
-0.519984
-0.389684
-0.290838
-0.212291
-0.145133
-0.0824719
-0.0185262
0.0522117
0.135737
0.239318
0.372361
0.546661
0.773785
1.06099
1.40608
1.72676
-2.53174
-1.64066
-1.04892
-0.715052
-0.500467
-0.35627
-0.257233
-0.184255
-0.124577
-0.0698344
-0.0137282
0.0495222
0.126439
0.22581
0.361078
0.553049
0.829956
1.2406
1.92233
2.91511
-4.35093
-2.05106
-0.978627
-0.56955
-0.3656
-0.247615
-0.175948
-0.127094
-0.0878127
-0.0508089
-0.011234
0.0351806
0.0934313
0.17099
0.281267
0.449716
0.723773
1.22998
2.41693
4.83123
)
;

boundaryField
{
    movingWall
    {
        type            zeroGradient;
    }
    fixedWalls
    {
        type            zeroGradient;
    }
    frontAndBack
    {
        type            empty;
    }
}


// ************************************************************************* //
