/*--------------------------------*- C++ -*----------------------------------*\
  =========                 |
  \\      /  F ield         | OpenFOAM: The Open Source CFD Toolbox
   \\    /   O peration     | Website:  https://openfoam.org
    \\  /    A nd           | Version:  6
     \\/     M anipulation  |
\*---------------------------------------------------------------------------*/
FoamFile
{
    version     2.0;
    format      ascii;
    class       surfaceScalarField;
    location    "0.045";
    object      phi;
}
// * * * * * * * * * * * * * * * * * * * * * * * * * * * * * * * * * * * * * //

dimensions      [0 3 -1 0 0 0 0];

internalField   nonuniform List<scalar> 
760
(
1.11538e-08
-1.1154e-08
-2.26994e-08
3.38531e-08
-1.0457e-07
8.18705e-08
-2.19428e-07
1.14858e-07
-3.49967e-07
1.30539e-07
-4.80157e-07
1.3019e-07
-5.96446e-07
1.1629e-07
-6.88161e-07
9.17141e-08
-7.47494e-07
5.93334e-08
-7.69444e-07
2.19504e-08
-7.51843e-07
-1.76018e-08
-6.95523e-07
-5.63192e-08
-6.04602e-07
-9.0921e-08
-4.86764e-07
-1.17839e-07
-3.53407e-07
-1.33357e-07
-2.19426e-07
-1.33981e-07
-1.02296e-07
-1.17131e-07
-2.01777e-08
-8.21181e-08
1.23027e-08
-3.24804e-08
1.23027e-08
-3.1691e-08
2.05371e-08
-1.61391e-07
1.63553e-07
-3.83311e-07
3.03791e-07
-6.69941e-07
4.01488e-07
-9.86783e-07
4.47381e-07
-1.29954e-06
4.42949e-07
-1.57779e-06
3.94543e-07
-1.79675e-06
3.10673e-07
-1.93798e-06
2.00556e-07
-1.98965e-06
7.36254e-08
-1.94686e-06
-6.03933e-08
-1.81195e-06
-1.91227e-07
-1.59501e-06
-3.07865e-07
-1.31417e-06
-3.98673e-07
-9.95521e-07
-4.52009e-07
-6.71936e-07
-4.57566e-07
-3.80425e-07
-4.08642e-07
-1.57211e-07
-3.05331e-07
-2.94407e-08
-1.60251e-07
-1.71378e-08
-8.15928e-08
1.0213e-07
-3.13441e-07
3.95401e-07
-6.68051e-07
6.58401e-07
-1.10401e-06
8.37445e-07
-1.5741e-06
9.17475e-07
-2.03194e-06
9.00789e-07
-2.43619e-06
7.98792e-07
-2.75292e-06
6.27403e-07
-2.95675e-06
4.04379e-07
-3.03137e-06
1.4825e-07
-2.97002e-06
-1.21744e-07
-2.77594e-06
-3.85306e-07
-2.46297e-06
-6.20836e-07
-2.0559e-06
-8.05745e-07
-1.59018e-06
-9.17731e-07
-1.11035e-06
-9.37393e-07
-6.66578e-07
-8.52412e-07
-3.08831e-07
-6.63078e-07
-7.86589e-08
-3.90423e-07
-9.57966e-08
-1.27069e-07
2.29199e-07
-4.59275e-07
7.27607e-07
-9.43693e-07
1.14282e-06
-1.5214e-06
1.41515e-06
-2.13212e-06
1.52819e-06
-2.71922e-06
1.48789e-06
-3.2333e-06
1.31287e-06
-3.6342e-06
1.02831e-06
-3.89201e-06
6.62187e-07
-3.98746e-06
2.43696e-07
-3.91232e-06
-1.96882e-07
-3.66999e-06
-6.27633e-07
-3.27623e-06
-1.0146e-06
-2.75979e-06
-1.32218e-06
-2.16244e-06
-1.51509e-06
-1.53762e-06
-1.56221e-06
-9.47188e-07
-1.44285e-06
-4.55832e-07
-1.15443e-06
-1.23759e-07
-7.22496e-07
-2.19556e-07
-1.69732e-07
3.98931e-07
-6.0142e-07
1.1593e-06
-1.21614e-06
1.75754e-06
-1.93497e-06
2.13399e-06
-2.68323e-06
2.27645e-06
-3.39429e-06
2.19895e-06
-4.012e-06
1.93058e-06
-4.49177e-06
1.50807e-06
-4.80072e-06
9.71138e-07
-4.91761e-06
3.60589e-07
-4.83291e-06
-2.81579e-07
-4.54938e-06
-9.11171e-07
-4.08308e-06
-1.48089e-06
-3.46471e-06
-1.94056e-06
-2.74038e-06
-2.23942e-06
-1.9713e-06
-2.33129e-06
-1.23142e-06
-2.18272e-06
-6.02465e-07
-1.78339e-06
-1.66851e-07
-1.15811e-06
-3.86407e-07
-2.12671e-07
6.11603e-07
-7.46723e-07
1.69335e-06
-1.49612e-06
2.50694e-06
-2.35973e-06
2.9976e-06
-3.24708e-06
3.1638e-06
-4.08144e-06
3.0333e-06
-4.80084e-06
2.64998e-06
-5.35769e-06
2.06491e-06
-5.71753e-06
1.33099e-06
-5.85801e-06
5.0107e-07
-5.76833e-06
-3.71263e-07
-5.44974e-06
-1.22977e-06
-4.91703e-06
-2.01359e-06
-4.2008e-06
-2.65679e-06
-3.3497e-06
-3.09051e-06
-2.4319e-06
-3.24909e-06
-1.53418e-06
-3.08044e-06
-7.58005e-07
-2.55957e-06
-2.11826e-07
-1.70429e-06
-5.98233e-07
-2.58824e-07
8.70426e-07
-9.02245e-07
2.33677e-06
-1.79397e-06
3.39866e-06
-2.80798e-06
4.01161e-06
-3.83671e-06
4.19254e-06
-4.79358e-06
3.99017e-06
-5.6122e-06
3.4686e-06
-6.24379e-06
2.6965e-06
-6.65404e-06
1.74124e-06
-6.82056e-06
6.67587e-07
-6.73143e-06
-4.60392e-07
-6.3855e-06
-1.57569e-06
-5.7944e-06
-2.60469e-06
-4.98608e-06
-3.46511e-06
-4.00927e-06
-4.06733e-06
-2.93743e-06
-4.32094e-06
-1.8705e-06
-4.14737e-06
-9.32415e-07
-3.49765e-06
-2.62628e-07
-2.37408e-06
-8.6086e-07
-3.10755e-07
1.18118e-06
-1.07405e-06
3.10006e-06
-2.11745e-06
4.44207e-06
-3.28643e-06
5.18059e-06
-4.45535e-06
5.36146e-06
-5.52898e-06
5.0638e-06
-6.43896e-06
4.37858e-06
-7.13822e-06
3.39576e-06
-7.59515e-06
2.19817e-06
-7.78901e-06
8.61447e-07
-7.70727e-06
-5.42137e-07
-7.34544e-06
-1.93752e-06
-6.70965e-06
-3.24048e-06
-5.82178e-06
-4.35298e-06
-4.72662e-06
-5.16248e-06
-3.49966e-06
-5.54789e-06
-2.25284e-06
-5.3942e-06
-1.13495e-06
-4.61554e-06
-3.23013e-07
-3.18601e-06
-1.18387e-06
-3.70787e-07
1.55197e-06
-1.26698e-06
3.99625e-06
-2.47072e-06
5.64581e-06
-3.79419e-06
6.50406e-06
-5.09344e-06
6.66071e-06
-6.26742e-06
6.23778e-06
-7.25011e-06
5.36128e-06
-8.00063e-06
4.14627e-06
-8.49389e-06
2.69143e-06
-8.7134e-06
1.08096e-06
-8.64707e-06
-6.08473e-07
-8.28631e-06
-2.29828e-06
-7.629e-06
-3.8978e-06
-6.68625e-06
-5.29573e-06
-5.49295e-06
-6.35578e-06
-4.12057e-06
-6.92028e-06
-2.68917e-06
-6.82559e-06
-1.37362e-06
-5.93109e-06
-3.96655e-07
-4.16298e-06
-1.58053e-06
-4.41521e-07
1.99349e-06
-1.48523e-06
5.03996e-06
-2.85399e-06
7.01457e-06
-4.32095e-06
7.97102e-06
-5.72529e-06
8.06506e-06
-6.96565e-06
7.47813e-06
-7.98527e-06
6.3809e-06
-8.75606e-06
4.91707e-06
-9.26479e-06
3.20016e-06
-9.50292e-06
1.3191e-06
-9.46059e-06
-6.50802e-07
-9.12477e-06
-2.6341e-06
-8.48213e-06
-4.54044e-06
-7.52727e-06
-6.25058e-06
-6.27669e-06
-7.60635e-06
-4.788e-06
-8.40898e-06
-3.18119e-06
-8.4324e-06
-1.65519e-06
-7.4571e-06
-4.87586e-07
-5.33058e-06
-2.06812e-06
-5.26843e-07
2.52033e-06
-1.73358e-06
6.2467e-06
-3.26341e-06
8.54439e-06
-4.84465e-06
9.55226e-06
-6.30459e-06
9.52499e-06
-7.55136e-06
8.72491e-06
-8.54792e-06
7.37746e-06
-9.28788e-06
5.65703e-06
-9.77665e-06
3.68892e-06
-1.00183e-05
1.56077e-06
-1.00079e-05
-6.61247e-07
-9.72821e-06
-2.91377e-06
-9.15236e-06
-5.11629e-06
-8.2521e-06
-7.15084e-06
-7.0148e-06
-8.84365e-06
-5.46965e-06
-9.95413e-06
-3.72158e-06
-1.01805e-05
-1.98528e-06
-9.19341e-06
-6.01039e-07
-6.71482e-06
-2.66915e-06
-6.33719e-07
3.15405e-06
-2.01909e-06
7.63207e-06
-3.69003e-06
1.02153e-05
-5.32687e-06
1.11891e-05
-6.75708e-06
1.09552e-05
-7.91467e-06
9.8825e-06
-8.7969e-06
8.25969e-06
-9.43004e-06
6.29017e-06
-9.84558e-06
4.10446e-06
-1.00651e-05
1.78034e-06
-1.00918e-05
-6.34614e-07
-9.90585e-06
-3.0997e-06
-9.46576e-06
-5.55638e-06
-8.71519e-06
-7.90141e-06
-7.60061e-06
-9.95823e-06
-6.10343e-06
-1.14513e-05
-4.28917e-06
-1.19947e-05
-2.36814e-06
-1.11144e-05
-7.44886e-07
-8.33807e-06
-3.41404e-06
-7.75201e-07
3.92925e-06
-2.35242e-06
9.20928e-06
-4.11528e-06
1.19782e-05
-5.70253e-06
1.27764e-05
-6.96727e-06
1.22199e-05
-7.89482e-06
1.081e-05
-8.53536e-06
8.90023e-06
-8.95906e-06
6.71387e-06
-9.2296e-06
4.375e-06
-9.38979e-06
1.94052e-06
-9.45365e-06
-5.70754e-07
-9.40198e-06
-3.15136e-06
-9.18059e-06
-5.77777e-06
-8.70346e-06
-8.37855e-06
-7.86657e-06
-1.07951e-05
-6.5815e-06
-1.27364e-05
-4.83878e-06
-1.37374e-05
-2.80471e-06
-1.31485e-05
-9.31939e-07
-1.02108e-05
-4.34598e-06
-9.7493e-07
4.90418e-06
-2.74578e-06
1.09801e-05
-4.4966e-06
1.3729e-05
-5.85684e-06
1.41366e-05
-6.75329e-06
1.31164e-05
-7.25869e-06
1.13154e-05
-7.49581e-06
9.13735e-06
-7.58616e-06
6.80422e-06
-7.62671e-06
4.41555e-06
-7.68095e-06
1.99477e-06
-7.77514e-06
-4.76567e-07
-7.89472e-06
-3.03178e-06
-7.97955e-06
-5.69294e-06
-7.91989e-06
-8.43821e-06
-7.55992e-06
-1.11551e-05
-6.72292e-06
-1.35734e-05
-5.2799e-06
-1.51805e-05
-3.28492e-06
-1.51435e-05
-1.1828e-06
-1.2313e-05
-5.52878e-06
-1.27093e-06
6.17511e-06
-3.19686e-06
1.29061e-05
-4.72781e-06
1.526e-05
-5.57527e-06
1.49841e-05
-5.82087e-06
1.3362e-05
-5.66694e-06
1.11615e-05
-5.32096e-06
8.79137e-06
-4.95155e-06
6.43481e-06
-4.67937e-06
4.14337e-06
-4.58055e-06
1.89594e-06
-4.69082e-06
-3.66293e-07
-5.00493e-06
-2.71767e-06
-5.46919e-06
-5.22868e-06
-5.96791e-06
-7.93949e-06
-6.30931e-06
-1.08137e-05
-6.22699e-06
-1.36557e-05
-5.43095e-06
-1.59765e-05
-3.76222e-06
-1.68122e-05
-1.52537e-06
-1.45498e-05
-7.05415e-06
-1.70449e-06
7.87959e-06
-3.62558e-06
1.48272e-05
-4.53949e-06
1.61739e-05
-4.44327e-06
1.48878e-05
-3.68571e-06
1.26044e-05
-2.6266e-06
1.01024e-05
-1.54401e-06
7.70877e-06
-6.26138e-07
5.51694e-06
8.86838e-09
3.50836e-06
2.90816e-07
1.61399e-06
1.82897e-07
-2.58373e-07
-3.22266e-07
-2.21251e-06
-1.19439e-06
-4.35655e-06
-2.34348e-06
-6.79041e-06
-3.58413e-06
-9.57304e-06
-4.59703e-06
-1.26428e-05
-4.92369e-06
-1.56499e-05
-4.07777e-06
-1.76581e-05
-1.97303e-06
-1.66546e-05
-9.02718e-06
-2.24893e-06
1.01285e-05
-3.68177e-06
1.626e-05
-3.27361e-06
1.57657e-05
-1.66481e-06
1.3279e-05
4.38941e-07
1.05007e-05
2.55954e-06
7.98181e-06
4.41768e-06
5.85063e-06
5.86698e-06
4.06765e-06
6.83576e-06
2.53958e-06
7.28721e-06
1.16255e-06
7.19699e-06
-1.68158e-07
6.54527e-06
-1.56079e-06
5.32246e-06
-3.13374e-06
3.55291e-06
-5.02086e-06
1.34481e-06
-7.36494e-06
-1.02722e-06
-1.02708e-05
-3.02e-06
-1.36571e-05
-3.77048e-06
-1.69076e-05
-2.43422e-06
-1.79908e-05
-1.14614e-05
-2.56137e-06
1.26899e-05
-2.24226e-06
1.59409e-05
5.75425e-07
1.2948e-05
4.22216e-06
9.63229e-06
7.76571e-06
6.95713e-06
1.08105e-05
4.93701e-06
1.3224e-05
3.43715e-06
1.49898e-05
2.30183e-06
1.613e-05
1.39939e-06
1.66653e-05
6.27228e-07
1.65966e-05
-9.93905e-08
1.58967e-05
-8.60948e-07
1.45112e-05
-1.7482e-06
1.23699e-05
-2.8796e-06
9.42615e-06
-4.42117e-06
5.7496e-06
-6.5942e-06
1.71751e-06
-9.62498e-06
-1.65043e-06
-1.35397e-05
-2.45611e-06
-1.71851e-05
-1.39175e-05
-8.45236e-07
1.35351e-05
4.04173e-06
1.10539e-05
1.02203e-05
6.76946e-06
1.56451e-05
4.20755e-06
1.99222e-05
2.68001e-06
2.31304e-05
1.72881e-06
2.54476e-05
1.11995e-06
2.70386e-05
7.10828e-07
2.80242e-05
4.13766e-07
2.84767e-05
1.74733e-07
2.84206e-05
-4.3325e-08
2.78319e-05
-2.72189e-07
2.66321e-05
-5.48423e-07
2.4679e-05
-9.26515e-07
2.17587e-05
-1.50085e-06
1.76071e-05
-2.44265e-06
1.2042e-05
-4.05981e-06
5.40086e-06
-6.8986e-06
-2.097e-07
-1.15746e-05
-1.41272e-05
1.35351e-05
2.4589e-05
3.13585e-05
3.55661e-05
3.82461e-05
3.99749e-05
4.10948e-05
4.18057e-05
4.22194e-05
4.23942e-05
4.23508e-05
4.20786e-05
4.15302e-05
4.06037e-05
3.91029e-05
3.66602e-05
3.26004e-05
2.57018e-05
1.41272e-05
)
;

boundaryField
{
    movingWall
    {
        type            calculated;
        value           uniform 0;
    }
    fixedWalls
    {
        type            calculated;
        value           uniform 0;
    }
    frontAndBack
    {
        type            empty;
        value           nonuniform 0();
    }
}


// ************************************************************************* //
