/*--------------------------------*- C++ -*----------------------------------*\
  =========                 |
  \\      /  F ield         | OpenFOAM: The Open Source CFD Toolbox
   \\    /   O peration     | Website:  https://openfoam.org
    \\  /    A nd           | Version:  6
     \\/     M anipulation  |
\*---------------------------------------------------------------------------*/
FoamFile
{
    version     2.0;
    format      ascii;
    class       volVectorField;
    location    "0.045";
    object      U;
}
// * * * * * * * * * * * * * * * * * * * * * * * * * * * * * * * * * * * * * //

dimensions      [0 1 -1 0 0 0 0];

internalField   nonuniform List<vector> 
400
(
(0.000204115 -0.00020123 0)
(7.12177e-05 0.000124985 0)
(-0.00111307 0.000517351 0)
(-0.00314317 0.000787996 0)
(-0.0056648 0.000918439 0)
(-0.00833409 0.000924283 0)
(-0.0108509 0.000828552 0)
(-0.0129711 0.00065497 0)
(-0.0145094 0.000425355 0)
(-0.0153377 0.000159806 0)
(-0.0153838 -0.000121887 0)
(-0.0146333 -0.00039866 0)
(-0.013135 -0.000646944 0)
(-0.0110061 -0.00084016 0)
(-0.00843841 -0.000949339 0)
(-0.00569791 -0.000945522 0)
(-0.00311495 -0.000804867 0)
(-0.00105885 -0.00051695 0)
(0.000111607 -0.000111322 0)
(0.000216649 0.000211796 0)
(-9.31514e-05 -9.72095e-05 0)
(-0.00147568 0.00150879 0)
(-0.00506337 0.00320789 0)
(-0.0103125 0.00440228 0)
(-0.0165125 0.00497605 0)
(-0.0229609 0.00495721 0)
(-0.0290015 0.00442855 0)
(-0.0340758 0.0034936 0)
(-0.0377489 0.00225991 0)
(-0.0397171 0.000834875 0)
(-0.0398118 -0.000671994 0)
(-0.0380054 -0.0021448 0)
(-0.0344203 -0.00345808 0)
(-0.0293382 -0.00447721 0)
(-0.0232045 -0.00506467 0)
(-0.016618 -0.00509501 0)
(-0.0102917 -0.0044818 0)
(-0.00497796 -0.00321749 0)
(-0.00140185 -0.00146085 0)
(-6.79283e-05 0.000141053 0)
(-0.000480875 0.00102911 0)
(-0.00328264 0.0051028 0)
(-0.00928046 0.00896056 0)
(-0.0174395 0.0116414 0)
(-0.026735 0.0128858 0)
(-0.0362275 0.0127214 0)
(-0.0450318 0.0113164 0)
(-0.0523857 0.00890498 0)
(-0.057692 0.00574606 0)
(-0.060532 0.00210821 0)
(-0.060673 -0.00173042 0)
(-0.0580774 -0.00547615 0)
(-0.0529135 -0.00881567 0)
(-0.0455671 -0.0114203 0)
(-0.0366448 -0.0129643 0)
(-0.0269597 -0.0131639 0)
(-0.0174731 -0.0118403 0)
(-0.00919806 -0.0090071 0)
(-0.00319107 -0.00501401 0)
(-0.000446199 -0.000932212 0)
(-0.000822458 0.00312458 0)
(-0.00499071 0.0107644 0)
(-0.0133694 0.0173889 0)
(-0.0243383 0.0218404 0)
(-0.0365197 0.0237788 0)
(-0.0487578 0.0232683 0)
(-0.0599901 0.0205951 0)
(-0.069312 0.0161598 0)
(-0.0760191 0.0104115 0)
(-0.0796183 0.00382094 0)
(-0.0798329 -0.00312247 0)
(-0.0766114 -0.00990246 0)
(-0.0701419 -0.0159705 0)
(-0.0608672 -0.0207542 0)
(-0.0494957 -0.0236893 0)
(-0.0369922 -0.024286 0)
(-0.0245194 -0.0222313 0)
(-0.0133403 -0.0175227 0)
(-0.00489665 -0.0106477 0)
(-0.000779112 -0.00296181 0)
(-0.00112977 0.00609426 0)
(-0.00662647 0.0184 0)
(-0.0173932 0.0283737 0)
(-0.0311793 0.0348042 0)
(-0.0462106 0.0373777 0)
(-0.0611049 0.0362689 0)
(-0.0746416 0.0319365 0)
(-0.0858072 0.0249867 0)
(-0.0938266 0.0160889 0)
(-0.0981597 0.00593925 0)
(-0.0984978 -0.00474115 0)
(-0.0947692 -0.0151927 0)
(-0.0871565 -0.0246063 0)
(-0.0761212 -0.0321314 0)
(-0.0624303 -0.0369203 0)
(-0.047166 -0.0382194 0)
(-0.0316814 -0.0355121 0)
(-0.0175167 -0.0286976 0)
(-0.00656485 -0.0183052 0)
(-0.00108207 -0.00586372 0)
(-0.00143315 0.00990982 0)
(-0.00828662 0.028034 0)
(-0.0215236 0.0419855 0)
(-0.0382167 0.0506045 0)
(-0.0561532 0.0537212 0)
(-0.0737096 0.0517225 0)
(-0.0895175 0.0453143 0)
(-0.102482 0.0353596 0)
(-0.111787 0.022777 0)
(-0.116871 0.00850205 0)
(-0.117401 -0.00650723 0)
(-0.113279 -0.0212434 0)
(-0.104655 -0.0346245 0)
(-0.0919718 -0.0454943 0)
(-0.0760121 -0.0526707 0)
(-0.0579459 -0.0550588 0)
(-0.039313 -0.0518369 0)
(-0.0219652 -0.0426897 0)
(-0.00832247 -0.0280758 0)
(-0.0013918 -0.00963261 0)
(-0.00176094 0.0146068 0)
(-0.0100711 0.03977 0)
(-0.0259384 0.0583576 0)
(-0.0456826 0.0693563 0)
(-0.0666057 0.0728781 0)
(-0.0868344 0.0696485 0)
(-0.104872 0.0607174 0)
(-0.119578 0.0472648 0)
(-0.130133 0.0304872 0)
(-0.135983 0.011563 0)
(-0.136788 -0.00832395 0)
(-0.132412 -0.0279322 0)
(-0.122946 -0.045911 0)
(-0.108765 -0.0607791 0)
(-0.090616 -0.0709649 0)
(-0.0697098 -0.0749358 0)
(-0.0477548 -0.0714283 0)
(-0.0269418 -0.0597552 0)
(-0.010307 -0.0401641 0)
(-0.00174516 -0.0143456 0)
(-0.00213833 0.0202764 0)
(-0.0120695 0.0537871 0)
(-0.0307865 0.0776689 0)
(-0.0537349 0.0911767 0)
(-0.0776775 0.0948796 0)
(-0.100499 0.0900042 0)
(-0.120617 0.0780644 0)
(-0.1369 0.0606272 0)
(-0.148586 0.0391909 0)
(-0.155173 0.0151663 0)
(-0.156334 -0.0100689 0)
(-0.151894 -0.0350772 0)
(-0.141852 -0.0582661 0)
(-0.126455 -0.0778264 0)
(-0.106335 -0.0917458 0)
(-0.0826646 -0.0979399 0)
(-0.0572679 -0.0945269 0)
(-0.032678 -0.0802317 0)
(-0.0126517 -0.0548903 0)
(-0.00217806 -0.0201575 0)
(-0.00258999 0.0270581 0)
(-0.0143625 0.0703262 0)
(-0.0361764 0.100113 0)
(-0.0624261 0.116128 0)
(-0.0892778 0.119643 0)
(-0.11441 0.112597 0)
(-0.136235 0.0971174 0)
(-0.153724 0.0752345 0)
(-0.166258 0.0487636 0)
(-0.173451 0.0193171 0)
(-0.175031 -0.011593 0)
(-0.170786 -0.0424035 0)
(-0.160586 -0.0713402 0)
(-0.144478 -0.0962927 0)
(-0.122867 -0.114773 0)
(-0.0967582 -0.124022 0)
(-0.0679784 -0.121318 0)
(-0.0393596 -0.104497 0)
(-0.0154853 -0.0726767 0)
(-0.00272857 -0.0272976 0)
(-0.00314711 0.0351386 0)
(-0.0170366 0.0896696 0)
(-0.0421824 0.125843 0)
(-0.071684 0.144128 0)
(-0.101064 0.146853 0)
(-0.127883 0.136959 0)
(-0.150682 0.117364 0)
(-0.16868 0.0906383 0)
(-0.18152 0.0589118 0)
(-0.189027 0.0239391 0)
(-0.191037 -0.0127274 0)
(-0.187319 -0.0495096 0)
(-0.177584 -0.0845582 0)
(-0.161589 -0.115535 0)
(-0.139368 -0.139478 0)
(-0.111569 -0.152842 0)
(-0.0798173 -0.151802 0)
(-0.0471121 -0.132889 0)
(-0.0189422 -0.0940202 0)
(-0.00344423 -0.0360711 0)
(-0.0038608 0.0447663 0)
(-0.020214 0.112125 0)
(-0.0488611 0.154894 0)
(-0.0812882 0.174816 0)
(-0.11237 0.17581 0)
(-0.139729 0.162195 0)
(-0.162255 0.13788 0)
(-0.179612 0.106043 0)
(-0.191866 0.0690902 0)
(-0.199164 0.0288231 0)
(-0.201524 -0.0133011 0)
(-0.198728 -0.055846 0)
(-0.19031 -0.0970498 0)
(-0.175657 -0.134487 0)
(-0.154261 -0.164795 0)
(-0.126152 -0.183575 0)
(-0.0924312 -0.185611 0)
(-0.0559821 -0.165583 0)
(-0.0231831 -0.119455 0)
(-0.0043955 -0.046874 0)
(-0.00482693 0.0562932 0)
(-0.0240992 0.138017 0)
(-0.0562653 0.187072 0)
(-0.0908119 0.207378 0)
(-0.122082 0.205227 0)
(-0.148093 0.186794 0)
(-0.168415 0.157184 0)
(-0.183415 0.120194 0)
(-0.193761 0.0784231 0)
(-0.200042 0.0335717 0)
(-0.202536 -0.0131727 0)
(-0.201087 -0.0607154 0)
(-0.195064 -0.107602 0)
(-0.183431 -0.151547 0)
(-0.164979 -0.188968 0)
(-0.138807 -0.214651 0)
(-0.10503 -0.221745 0)
(-0.0658915 -0.2024 0)
(-0.0284236 -0.149499 0)
(-0.00569977 -0.0602316 0)
(-0.00623123 0.0702682 0)
(-0.029047 0.167662 0)
(-0.0644198 0.221769 0)
(-0.0994652 0.240269 0)
(-0.128386 0.232966 0)
(-0.150173 0.208432 0)
(-0.165539 0.173101 0)
(-0.175842 0.131304 0)
(-0.182515 0.0856541 0)
(-0.186674 0.0375571 0)
(-0.188918 -0.0122745 0)
(-0.189208 -0.0633104 0)
(-0.18681 -0.114668 0)
(-0.180285 -0.16451 0)
(-0.167634 -0.209369 0)
(-0.146729 -0.243453 0)
(-0.116104 -0.258194 0)
(-0.076517 -0.242492 0)
(-0.0349663 -0.18455 0)
(-0.00756305 -0.0768795 0)
(-0.00842335 0.0876092 0)
(-0.0356264 0.201295 0)
(-0.0731566 0.257605 0)
(-0.105691 0.270797 0)
(-0.128251 0.255711 0)
(-0.141733 0.223786 0)
(-0.148545 0.182705 0)
(-0.151282 0.137057 0)
(-0.152196 0.0891748 0)
(-0.152919 0.0399239 0)
(-0.154364 -0.0106589 0)
(-0.156668 -0.062807 0)
(-0.159105 -0.116466 0)
(-0.159983 -0.170619 0)
(-0.156599 -0.222408 0)
(-0.145451 -0.266008 0)
(-0.122893 -0.291428 0)
(-0.08698 -0.283817 0)
(-0.0431908 -0.224649 0)
(-0.0103409 -0.0978968 0)
(-0.0119974 0.109855 0)
(-0.0445498 0.238753 0)
(-0.0815246 0.291757 0)
(-0.106197 0.294524 0)
(-0.11642 0.268649 0)
(-0.116285 0.228493 0)
(-0.110369 0.182464 0)
(-0.10252 0.134828 0)
(-0.0956305 0.0872142 0)
(-0.0916477 0.039687 0)
(-0.0916792 -0.00852884 0)
(-0.0960466 -0.0585318 0)
(-0.104209 -0.111258 0)
(-0.11454 -0.166854 0)
(-0.124021 -0.223692 0)
(-0.128011 -0.276828 0)
(-0.120375 -0.315814 0)
(-0.0950593 -0.322282 0)
(-0.0533196 -0.268921 0)
(-0.0145712 -0.124858 0)
(-0.0176908 0.139551 0)
(-0.0559466 0.278604 0)
(-0.0860274 0.318685 0)
(-0.0938104 0.304477 0)
(-0.0835666 0.265338 0)
(-0.0638337 0.217483 0)
(-0.0413152 0.168779 0)
(-0.0205948 0.12224 0)
(-0.00462427 0.0782804 0)
(0.00479948 0.0359849 0)
(0.0066518 -0.00621968 0)
(0.000484412 -0.0502022 0)
(-0.0135399 -0.0978396 0)
(-0.0343497 -0.150591 0)
(-0.059383 -0.208639 0)
(-0.0837654 -0.26915 0)
(-0.0994202 -0.323093 0)
(-0.0952936 -0.35043 0)
(-0.0643672 -0.314392 0)
(-0.0207238 -0.160043 0)
(-0.0253603 0.18112 0)
(-0.0665285 0.315884 0)
(-0.0760931 0.327572 0)
(-0.0531794 0.29003 0)
(-0.0133344 0.23792 0)
(0.0306612 0.18589 0)
(0.0714123 0.139063 0)
(0.10498 0.0981104 0)
(0.129408 0.0618669 0)
(0.143752 0.0284957 0)
(0.14747 -0.004101 0)
(0.14013 -0.0381872 0)
(0.121379 -0.0761937 0)
(0.0912039 -0.120642 0)
(0.0506336 -0.173709 0)
(0.00305198 -0.2358 0)
(-0.0437147 -0.302045 0)
(-0.0749135 -0.355377 0)
(-0.0709385 -0.353527 0)
(-0.0278131 -0.206982 0)
(-0.0290372 0.238666 0)
(-0.0607686 0.335314 0)
(-0.0238882 0.29869 0)
(0.0466907 0.237155 0)
(0.121476 0.179335 0)
(0.188417 0.131616 0)
(0.243307 0.0939097 0)
(0.285096 0.0640235 0)
(0.314066 0.0394675 0)
(0.330773 0.0179917 0)
(0.335496 -0.00243877 0)
(0.327992 -0.0238386 0)
(0.307422 -0.0484559 0)
(0.272437 -0.0790491 0)
(0.221623 -0.119065 0)
(0.1547 -0.172219 0)
(0.0748302 -0.240264 0)
(-0.00599243 -0.316723 0)
(-0.054882 -0.367314 0)
(-0.0278386 -0.266459 0)
(0.00964392 0.281018 0)
(0.0210941 0.294654 0)
(0.137982 0.210261 0)
(0.262173 0.142317 0)
(0.360574 0.0957756 0)
(0.434737 0.0643097 0)
(0.489285 0.0428905 0)
(0.527821 0.0278113 0)
(0.5532 0.0165058 0)
(0.567376 0.00723179 0)
(0.571331 -0.00129972 0)
(0.565086 -0.0102415 0)
(0.547639 -0.0209097 0)
(0.516804 -0.0351641 0)
(0.469055 -0.0559645 0)
(0.399527 -0.0880707 0)
(0.301708 -0.138515 0)
(0.171391 -0.215368 0)
(0.0421462 -0.310822 0)
(0.0200411 -0.298771 0)
(0.301054 0.145557 0)
(0.397915 0.127092 0)
(0.55748 0.0758359 0)
(0.673974 0.043492 0)
(0.742712 0.0253334 0)
(0.785149 0.0150088 0)
(0.812672 0.00900675 0)
(0.83046 0.00535468 0)
(0.841402 0.0029406 0)
(0.847133 0.00113884 0)
(0.84842 -0.000436161 0)
(0.845364 -0.00208791 0)
(0.837409 -0.00416421 0)
(0.82313 -0.00722113 0)
(0.799746 -0.0123149 0)
(0.761997 -0.0215448 0)
(0.698086 -0.0390294 0)
(0.583524 -0.072315 0)
(0.417254 -0.12728 0)
(0.310297 -0.148829 0)
)
;

boundaryField
{
    movingWall
    {
        type            fixedValue;
        value           uniform (1 0 0);
    }
    fixedWalls
    {
        type            noSlip;
    }
    frontAndBack
    {
        type            empty;
    }
}


// ************************************************************************* //
