/*--------------------------------*- C++ -*----------------------------------*\
  =========                 |
  \\      /  F ield         | OpenFOAM: The Open Source CFD Toolbox
   \\    /   O peration     | Website:  https://openfoam.org
    \\  /    A nd           | Version:  6
     \\/     M anipulation  |
\*---------------------------------------------------------------------------*/
FoamFile
{
    version     2.0;
    format      ascii;
    class       volVectorField;
    location    "0.235";
    object      U;
}
// * * * * * * * * * * * * * * * * * * * * * * * * * * * * * * * * * * * * * //

dimensions      [0 1 -1 0 0 0 0];

internalField   nonuniform List<vector> 
400
(
(0.000256352 -0.000252709 0)
(0.000157617 0.000107314 0)
(-0.00114752 0.000566284 0)
(-0.00345713 0.000894641 0)
(-0.00637606 0.00106068 0)
(-0.00949712 0.00107662 0)
(-0.0124535 0.000967193 0)
(-0.0149423 0.000760972 0)
(-0.0167343 0.000486315 0)
(-0.0176754 0.000170362 0)
(-0.0176864 -0.000160496 0)
(-0.0167633 -0.000479709 0)
(-0.0149787 -0.000759692 0)
(-0.0124842 -0.000971288 0)
(-0.00951155 -0.00108399 0)
(-0.0063706 -0.00106777 0)
(-0.00343712 -0.000897956 0)
(-0.00112496 -0.000564258 0)
(0.00017144 -0.000102036 0)
(0.000260023 0.000255692 0)
(-6.90001e-05 -0.000187064 0)
(-0.00157527 0.00161966 0)
(-0.00563416 0.00361491 0)
(-0.0116732 0.00506395 0)
(-0.0188906 0.00579327 0)
(-0.0264542 0.00581002 0)
(-0.0335651 0.00520026 0)
(-0.0395348 0.00408762 0)
(-0.0438279 0.00260997 0)
(-0.046079 0.000909329 0)
(-0.0460996 -0.000870754 0)
(-0.0438825 -0.00258471 0)
(-0.0396038 -0.00408407 0)
(-0.0336239 -0.00521859 0)
(-0.0264827 -0.00584164 0)
(-0.0188816 -0.00582375 0)
(-0.0116354 -0.00507906 0)
(-0.00558942 -0.00360806 0)
(-0.00154567 -0.00159828 0)
(-6.02469e-05 0.000201535 0)
(-0.000515428 0.00104338 0)
(-0.00366093 0.0056753 0)
(-0.0105145 0.0102155 0)
(-0.0199428 0.0134673 0)
(-0.0307797 0.0150499 0)
(-0.0419108 0.0149405 0)
(-0.0522614 0.0133108 0)
(-0.060896 0.0104395 0)
(-0.0670826 0.00665623 0)
(-0.0703201 0.00231272 0)
(-0.0703497 -0.00222933 0)
(-0.0671617 -0.00660183 0)
(-0.0609985 -0.0104325 0)
(-0.0523542 -0.013352 0)
(-0.0419651 -0.0150117 0)
(-0.0307824 -0.0151199 0)
(-0.0199025 -0.0135046 0)
(-0.0104584 -0.0102043 0)
(-0.00362031 -0.00562917 0)
(-0.000502508 -0.00100778 0)
(-0.000910745 0.00339305 0)
(-0.00563309 0.0121236 0)
(-0.0152319 0.0199209 0)
(-0.0279014 0.0253136 0)
(-0.0420672 0.0277816 0)
(-0.0563597 0.0273109 0)
(-0.0694938 0.0241967 0)
(-0.080365 0.0189157 0)
(-0.0881171 0.0120383 0)
(-0.0921669 0.00417867 0)
(-0.0922131 -0.00402885 0)
(-0.088243 -0.0119381 0)
(-0.0805353 -0.0188974 0)
(-0.0696622 -0.0242634 0)
(-0.0564829 -0.0274335 0)
(-0.0421201 -0.0279081 0)
(-0.0278868 -0.025389 0)
(-0.0151801 -0.0199138 0)
(-0.00558664 -0.0120506 0)
(-0.000894146 -0.00332944 0)
(-0.00125958 0.00674774 0)
(-0.00748539 0.0208333 0)
(-0.0197812 0.032551 0)
(-0.0356247 0.0403177 0)
(-0.052988 0.0435928 0)
(-0.0702393 0.0424567 0)
(-0.0859104 0.0373916 0)
(-0.0987743 0.0291215 0)
(-0.107901 0.0184961 0)
(-0.112664 0.00642302 0)
(-0.112741 -0.00616387 0)
(-0.108115 -0.0183148 0)
(-0.0990754 -0.0290707 0)
(-0.0862301 -0.0374803 0)
(-0.0705094 -0.0426449 0)
(-0.0531604 -0.0438028 0)
(-0.0356877 -0.0404621 0)
(-0.0197642 -0.0325721 0)
(-0.00744429 -0.0207429 0)
(-0.00124087 -0.00665305 0)
(-0.00159165 0.0110476 0)
(-0.0093042 0.0317705 0)
(-0.0243027 0.0481018 0)
(-0.0433117 0.05846 0)
(-0.0638106 0.0624157 0)
(-0.083894 0.0602589 0)
(-0.101929 0.0527486 0)
(-0.116606 0.0409186 0)
(-0.126963 0.0259364 0)
(-0.132367 0.0090234 0)
(-0.132496 -0.00857811 0)
(-0.127322 -0.0256092 0)
(-0.117125 -0.0407928 0)
(-0.102508 -0.0528462 0)
(-0.0844239 -0.0605303 0)
(-0.0642061 -0.0627518 0)
(-0.0435331 -0.0587282 0)
(-0.0243703 -0.0482007 0)
(-0.00928866 -0.0316919 0)
(-0.00157439 -0.0109262 0)
(-0.00193666 0.0162952 0)
(-0.0111891 0.0449688 0)
(-0.0289635 0.066611 0)
(-0.0511665 0.0797393 0)
(-0.0747435 0.0841846 0)
(-0.0975131 0.0805918 0)
(-0.117709 0.0701106 0)
(-0.133987 0.0541594 0)
(-0.145405 0.0342611 0)
(-0.151367 0.0119586 0)
(-0.151569 -0.0112074 0)
(-0.145977 -0.033685 0)
(-0.13483 -0.0538873 0)
(-0.118679 -0.0701885 0)
(-0.0984467 -0.0809648 0)
(-0.0754988 -0.0847067 0)
(-0.0516576 -0.0802162 0)
(-0.0291879 -0.066873 0)
(-0.0112303 -0.0449611 0)
(-0.00192698 -0.0161644 0)
(-0.00232251 0.0225515 0)
(-0.0132367 0.0605354 0)
(-0.033919 0.0881521 0)
(-0.0593436 0.104137 0)
(-0.0858743 0.108772 0)
(-0.111072 0.103242 0)
(-0.133096 0.0892274 0)
(-0.15064 0.0686166 0)
(-0.162858 0.0433191 0)
(-0.169243 0.0151902 0)
(-0.169542 -0.0139662 0)
(-0.16371 -0.0423476 0)
(-0.151916 -0.0680913 0)
(-0.134599 -0.0892343 0)
(-0.112572 -0.10373 0)
(-0.0871515 -0.109556 0)
(-0.0602428 -0.104942 0)
(-0.0343945 -0.0887075 0)
(-0.0133778 -0.060699 0)
(-0.00232958 -0.022448 0)
(-0.00277835 0.0299323 0)
(-0.0155429 0.0786463 0)
(-0.0393009 0.112813 0)
(-0.0679159 0.13157 0)
(-0.0971199 0.135919 0)
(-0.12427 0.127826 0)
(-0.147552 0.109677 0)
(-0.165814 0.0839173 0)
(-0.178408 0.0528623 0)
(-0.184994 0.0186441 0)
(-0.185407 -0.0167372 0)
(-0.179594 -0.0513067 0)
(-0.167613 -0.0829935 0)
(-0.149715 -0.109532 0)
(-0.126492 -0.128429 0)
(-0.0990879 -0.137048 0)
(-0.0693785 -0.132856 0)
(-0.0401405 -0.113843 0)
(-0.0158393 -0.079133 0)
(-0.00281484 -0.0299193 0)
(-0.0033423 0.038612 0)
(-0.0182189 0.0995341 0)
(-0.0452227 0.140645 0)
(-0.076852 0.161803 0)
(-0.108169 0.165122 0)
(-0.136442 0.153676 0)
(-0.160051 0.130759 0)
(-0.178172 0.0994603 0)
(-0.190489 0.0624909 0)
(-0.196925 0.0221876 0)
(-0.197456 -0.0193621 0)
(-0.192022 -0.0601329 0)
(-0.180529 -0.0979579 0)
(-0.162944 -0.130345 0)
(-0.139494 -0.154366 0)
(-0.110969 -0.166674 0)
(-0.0790282 -0.163745 0)
(-0.0465488 -0.142382 0)
(-0.0187364 -0.100555 0)
(-0.00342479 -0.0387859 0)
(-0.00407566 0.0488431 0)
(-0.0214196 0.123479 0)
(-0.0517897 0.171596 0)
(-0.0859783 0.194324 0)
(-0.118393 0.195487 0)
(-0.146434 0.179696 0)
(-0.168944 0.151379 0)
(-0.18565 0.114329 0)
(-0.196742 0.0715987 0)
(-0.202515 0.0256048 0)
(-0.203141 -0.0216359 0)
(-0.198564 -0.0682195 0)
(-0.188494 -0.112049 0)
(-0.172515 -0.150542 0)
(-0.150315 -0.180399 0)
(-0.122084 -0.197504 0)
(-0.088974 -0.197094 0)
(-0.0537149 -0.174306 0)
(-0.0222305 -0.125303 0)
(-0.00422484 -0.0493398 0)
(-0.00508801 0.061004 0)
(-0.0253873 0.1508 0)
(-0.0590954 0.205386 0)
(-0.0948908 0.228155 0)
(-0.126684 0.225526 0)
(-0.152408 0.20419 0)
(-0.171749 0.169922 0)
(-0.185272 0.127214 0)
(-0.193856 0.0793279 0)
(-0.198271 0.028575 0)
(-0.198933 -0.0233084 0)
(-0.195803 -0.0747586 0)
(-0.188371 -0.12397 0)
(-0.175751 -0.16848 0)
(-0.156917 -0.204769 0)
(-0.131159 -0.227976 0)
(-0.0987056 -0.231871 0)
(-0.0616883 -0.209336 0)
(-0.0265611 -0.153744 0)
(-0.00532868 -0.0620031 0)
(-0.00658165 0.0756959 0)
(-0.0305067 0.181822 0)
(-0.0671617 0.241301 0)
(-0.102747 0.261559 0)
(-0.131152 0.252897 0)
(-0.151513 0.224682 0)
(-0.164873 0.184156 0)
(-0.172939 0.136371 0)
(-0.177422 0.0845562 0)
(-0.179619 0.0306639 0)
(-0.180213 -0.0240977 0)
(-0.179196 -0.078751 0)
(-0.17585 -0.132045 0)
(-0.168792 -0.18192 0)
(-0.156159 -0.224923 0)
(-0.136037 -0.255623 0)
(-0.107182 -0.266219 0)
(-0.0703905 -0.246687 0)
(-0.0320927 -0.186213 0)
(-0.00694174 -0.07742 0)
(-0.0089215 0.0939083 0)
(-0.0373423 0.216756 0)
(-0.0757131 0.277791 0)
(-0.10779 0.291608 0)
(-0.128556 0.274086 0)
(-0.13938 0.237766 0)
(-0.143238 0.191216 0)
(-0.143201 0.13967 0)
(-0.141824 0.0859529 0)
(-0.140872 0.0313442 0)
(-0.141253 -0.0237215 0)
(-0.143001 -0.0790785 0)
(-0.145263 -0.134292 0)
(-0.146257 -0.188048 0)
(-0.143305 -0.23739 0)
(-0.133097 -0.27676 0)
(-0.112327 -0.296983 0)
(-0.0793547 -0.284629 0)
(-0.039335 -0.222859 0)
(-0.00942829 -0.0966123 0)
(-0.0126998 0.117243 0)
(-0.0465059 0.255309 0)
(-0.083493 0.31173 0)
(-0.106321 0.313569 0)
(-0.113293 0.284139 0)
(-0.109347 0.23914 0)
(-0.0998261 0.187802 0)
(-0.0890891 0.134844 0)
(-0.0802808 0.082168 0)
(-0.0753866 0.0300727 0)
(-0.0753899 -0.0219536 0)
(-0.0803761 -0.0746847 0)
(-0.0895126 -0.12868 0)
(-0.100898 -0.183705 0)
(-0.111351 -0.237864 0)
(-0.116303 -0.286259 0)
(-0.11 -0.319121 0)
(-0.0869985 -0.319698 0)
(-0.0487721 -0.26319 0)
(-0.0133648 -0.121178 0)
(-0.0185821 0.148237 0)
(-0.0578024 0.295687 0)
(-0.0864047 0.337097 0)
(-0.090585 0.320182 0)
(-0.0757131 0.276643 0)
(-0.051442 0.224039 0)
(-0.0252578 0.170783 0)
(-0.00214367 0.120033 0)
(0.0148387 0.0722143 0)
(0.0239778 0.0264502 0)
(0.0244722 -0.0187089 0)
(0.0162032 -0.0649002 0)
(-0.000254948 -0.11366 0)
(-0.0233809 -0.166018 0)
(-0.0502133 -0.221711 0)
(-0.0756904 -0.277629 0)
(-0.0919663 -0.325041 0)
(-0.0887364 -0.345375 0)
(-0.059931 -0.305002 0)
(-0.0193499 -0.153572 0)
(-0.0261483 0.191106 0)
(-0.0672204 0.332213 0)
(-0.0730647 0.342523 0)
(-0.0448383 0.300783 0)
(0.000335 0.24417 0)
(0.0486735 0.18827 0)
(0.0922745 0.138281 0)
(0.127078 0.0946569 0)
(0.151215 0.0560277 0)
(0.163922 0.0204553 0)
(0.164902 -0.0141391 0)
(0.154043 -0.0498833 0)
(0.131406 -0.0889505 0)
(0.0975028 -0.13347 0)
(0.0539611 -0.185086 0)
(0.00469671 -0.243622 0)
(-0.0422735 -0.303929 0)
(-0.0726552 -0.349762 0)
(-0.0682826 -0.341961 0)
(-0.0267555 -0.197774 0)
(-0.0286872 0.24893 0)
(-0.058183 0.348491 0)
(-0.0153985 0.308216 0)
(0.0610705 0.242127 0)
(0.140369 0.180826 0)
(0.21013 0.130877 0)
(0.266179 0.0917434 0)
(0.307676 0.0607872 0)
(0.335123 0.0352457 0)
(0.349248 0.0127483 0)
(0.350481 -0.00875505 0)
(0.338759 -0.0312186 0)
(0.313509 -0.0567552 0)
(0.273794 -0.0878796 0)
(0.218814 -0.127614 0)
(0.149061 -0.178994 0)
(0.0684375 -0.242969 0)
(-0.0106987 -0.312913 0)
(-0.0566127 -0.356739 0)
(-0.0283682 -0.256032 0)
(0.0132475 0.287614 0)
(0.0288538 0.301524 0)
(0.151503 0.213636 0)
(0.279686 0.142603 0)
(0.37992 0.0945411 0)
(0.454437 0.0626293 0)
(0.50833 0.0411763 0)
(0.545517 0.0261022 0)
(0.569003 0.014699 0)
(0.580774 0.00519179 0)
(0.581792 -0.00370056 0)
(0.572066 -0.0131117 0)
(0.550633 -0.0243344 0)
(0.515448 -0.0391819 0)
(0.463324 -0.0604742 0)
(0.390008 -0.0925688 0)
(0.289908 -0.141665 0)
(0.160111 -0.215002 0)
(0.0342392 -0.305704 0)
(0.0158704 -0.292142 0)
(0.304279 0.146877 0)
(0.404862 0.127586 0)
(0.567544 0.074964 0)
(0.684225 0.0421605 0)
(0.752016 0.0241472 0)
(0.793451 0.0141633 0)
(0.820062 0.00846043 0)
(0.837039 0.00499815 0)
(0.847209 0.00267432 0)
(0.852114 0.000888222 0)
(0.852434 -0.000727625 0)
(0.848198 -0.00247168 0)
(0.838788 -0.00470298 0)
(0.822717 -0.00800692 0)
(0.797183 -0.0134751 0)
(0.756965 -0.0231846 0)
(0.690407 -0.041041 0)
(0.574191 -0.074104 0)
(0.409764 -0.127675 0)
(0.306599 -0.147726 0)
)
;

boundaryField
{
    movingWall
    {
        type            fixedValue;
        value           uniform (1 0 0);
    }
    fixedWalls
    {
        type            noSlip;
    }
    frontAndBack
    {
        type            empty;
    }
}


// ************************************************************************* //
