/*--------------------------------*- C++ -*----------------------------------*\
  =========                 |
  \\      /  F ield         | OpenFOAM: The Open Source CFD Toolbox
   \\    /   O peration     | Website:  https://openfoam.org
    \\  /    A nd           | Version:  6
     \\/     M anipulation  |
\*---------------------------------------------------------------------------*/
FoamFile
{
    version     2.0;
    format      ascii;
    class       surfaceScalarField;
    location    "0.07";
    object      phi;
}
// * * * * * * * * * * * * * * * * * * * * * * * * * * * * * * * * * * * * * //

dimensions      [0 3 -1 0 0 0 0];

internalField   nonuniform List<scalar> 
760
(
1.47895e-08
-1.48118e-08
-2.07594e-08
3.5549e-08
-1.12658e-07
9.18985e-08
-2.44704e-07
1.32047e-07
-3.96796e-07
1.52092e-07
-5.49564e-07
1.52767e-07
-6.86248e-07
1.36684e-07
-7.93561e-07
1.07313e-07
-8.61954e-07
6.83941e-08
-8.85653e-07
2.36994e-08
-8.62642e-07
-2.30116e-08
-7.94685e-07
-6.79566e-08
-6.87402e-07
-1.07283e-07
-5.50337e-07
-1.37065e-07
-3.96942e-07
-1.53395e-07
-2.44251e-07
-1.52692e-07
-1.11902e-07
-1.32348e-07
-2.01238e-08
-9.17784e-08
1.50385e-08
-3.51622e-08
1.50385e-08
-3.28957e-08
1.80839e-08
-1.77525e-07
1.80179e-07
-4.30939e-07
3.45312e-07
-7.63007e-07
4.64115e-07
-1.13358e-06
5.2267e-07
-1.50138e-06
5.20563e-07
-1.82902e-06
4.64327e-07
-2.08589e-06
3.64176e-07
-2.24947e-06
2.31982e-07
-2.30602e-06
8.02477e-08
-2.25075e-06
-7.82838e-08
-2.08798e-06
-2.30725e-07
-1.83119e-06
-3.64076e-07
-1.50286e-06
-4.65394e-07
-1.13391e-06
-5.22346e-07
-7.62197e-07
-5.24403e-07
-4.29512e-07
-4.65033e-07
-1.76245e-07
-3.45045e-07
-3.23218e-08
-1.79085e-07
-1.72831e-08
-9.03952e-08
1.08479e-07
-3.53246e-07
4.43029e-07
-7.60953e-07
7.53019e-07
-1.26741e-06
9.70569e-07
-1.81749e-06
1.07275e-06
-2.35542e-06
1.05849e-06
-2.83059e-06
9.395e-07
-3.2013e-06
7.34888e-07
-3.43675e-06
4.67432e-07
-3.51803e-06
1.61531e-07
-3.43858e-06
-1.57733e-07
-3.20437e-06
-4.64944e-07
-2.83388e-06
-7.34558e-07
-2.35789e-06
-9.41385e-07
-1.81844e-06
-1.0618e-06
-1.26675e-06
-1.07609e-06
-7.59288e-07
-9.72498e-07
-3.51578e-07
-7.52755e-07
-8.95802e-08
-4.41083e-07
-1.06863e-07
-1.42939e-07
2.51419e-07
-5.21524e-07
8.21614e-07
-1.07905e-06
1.31055e-06
-1.74922e-06
1.64073e-06
-2.46155e-06
1.78509e-06
-3.14811e-06
1.74505e-06
-3.74869e-06
1.54008e-06
-4.21427e-06
1.20047e-06
-4.50892e-06
7.62079e-07
-4.61065e-06
2.63264e-07
-4.51181e-06
-2.56568e-07
-4.21926e-06
-7.57503e-07
-3.75439e-06
-1.19943e-06
-3.15301e-06
-1.54276e-06
-2.4645e-06
-1.75031e-06
-1.74983e-06
-1.79077e-06
-1.07788e-06
-1.64445e-06
-5.1981e-07
-1.31082e-06
-1.41959e-07
-8.18935e-07
-2.48822e-07
-1.91315e-07
4.42734e-07
-6.82468e-07
1.31277e-06
-1.38725e-06
2.01533e-06
-2.21643e-06
2.46991e-06
-3.08284e-06
2.6515e-06
-3.90686e-06
2.56907e-06
-4.62054e-06
2.25375e-06
-5.16997e-06
1.7499e-06
-5.51636e-06
1.10846e-06
-5.63619e-06
3.831e-07
-5.52125e-06
-3.7151e-07
-5.17862e-06
-1.10013e-06
-4.63096e-06
-1.74709e-06
-3.91675e-06
-2.25697e-06
-3.09024e-06
-2.57682e-06
-2.22033e-06
-2.66068e-06
-1.38794e-06
-2.47684e-06
-6.81394e-07
-2.01737e-06
-1.90345e-07
-1.30998e-06
-4.39166e-07
-2.38444e-07
6.81178e-07
-8.41999e-07
1.91632e-06
-1.6943e-06
2.86763e-06
-2.68102e-06
3.45664e-06
-3.69696e-06
3.66744e-06
-4.651e-06
3.5231e-06
-5.46886e-06
3.07162e-06
-6.09385e-06
2.3749e-06
-6.48631e-06
1.50092e-06
-6.62264e-06
5.19427e-07
-6.49449e-06
-4.99662e-07
-6.10858e-06
-1.48604e-06
-5.48726e-06
-2.36842e-06
-4.66956e-06
-3.07467e-06
-3.71243e-06
-3.53394e-06
-2.69129e-06
-3.68182e-06
-1.69903e-06
-3.4691e-06
-8.42732e-07
-2.87366e-06
-2.37822e-07
-1.91489e-06
-6.76989e-07
-2.87347e-07
9.68524e-07
-1.00705e-06
2.63602e-06
-2.0098e-06
3.87038e-06
-3.15362e-06
4.60046e-06
-4.31414e-06
4.82796e-06
-5.38946e-06
4.59842e-06
-6.30096e-06
3.98312e-06
-6.99171e-06
3.06565e-06
-7.42358e-06
1.9328e-06
-7.5745e-06
6.70347e-07
-7.43655e-06
-6.37614e-07
-7.01541e-06
-1.90718e-06
-6.33131e-06
-3.05252e-06
-5.4213e-06
-3.98468e-06
-4.34237e-06
-4.61287e-06
-3.17439e-06
-4.84979e-06
-2.02164e-06
-4.62186e-06
-1.01131e-06
-3.88399e-06
-2.87611e-07
-2.63859e-06
-9.64599e-07
-3.40863e-07
1.30939e-06
-1.18416e-06
3.47932e-06
-2.34182e-06
5.02803e-06
-3.64054e-06
5.89919e-06
-4.93619e-06
6.12361e-06
-6.11792e-06
5.78015e-06
-7.10616e-06
4.97136e-06
-7.84746e-06
3.80694e-06
-8.30847e-06
2.39381e-06
-8.47082e-06
8.32699e-07
-8.32775e-06
-7.80682e-07
-7.88308e-06
-2.35185e-06
-7.15267e-06
-3.78294e-06
-6.16815e-06
-4.96919e-06
-4.98261e-06
-5.79842e-06
-3.67685e-06
-6.15554e-06
-2.36467e-06
-5.93404e-06
-1.19425e-06
-5.05441e-06
-3.42771e-07
-3.49007e-06
-1.30737e-06
-4.01802e-07
1.71119e-06
-1.3793e-06
4.45682e-06
-2.69576e-06
6.3445e-06
-4.14172e-06
7.34514e-06
-5.55353e-06
7.53543e-06
-6.81532e-06
7.04193e-06
-7.85205e-06
6.0081e-06
-8.6193e-06
4.57419e-06
-9.093e-06
2.86751e-06
-9.26136e-06
1.00105e-06
-9.11977e-06
-9.22267e-07
-8.66925e-06
-2.80237e-06
-7.91835e-06
-4.53384e-06
-6.88867e-06
-5.99887e-06
-5.62357e-06
-7.06352e-06
-4.199e-06
-7.58012e-06
-2.73414e-06
-7.3989e-06
-1.39804e-06
-6.39051e-06
-4.06343e-07
-4.48177e-06
-1.71371e-06
-4.73503e-07
2.18469e-06
-1.59834e-06
5.58166e-06
-3.07392e-06
7.82008e-06
-4.64855e-06
8.91977e-06
-6.14152e-06
9.0284e-06
-7.43903e-06
8.33945e-06
-8.47917e-06
7.04823e-06
-9.23427e-06
5.32928e-06
-9.69542e-06
3.32866e-06
-9.86102e-06
1.16665e-06
-9.72995e-06
-1.05334e-06
-9.29934e-06
-3.23297e-06
-8.56698e-06
-5.2662e-06
-7.53848e-06
-7.02738e-06
-6.23938e-06
-8.36262e-06
-4.73169e-06
-9.08781e-06
-3.13239e-06
-8.99819e-06
-1.62891e-06
-7.894e-06
-4.81884e-07
-5.62879e-06
-2.1956e-06
-5.60857e-07
2.74555e-06
-1.84816e-06
6.86896e-06
-3.47466e-06
9.44657e-06
-5.14059e-06
1.05857e-05
-6.65487e-06
1.05427e-05
-7.91802e-06
9.6026e-06
-8.89365e-06
8.02387e-06
-9.58099e-06
6.01662e-06
-9.99324e-06
3.74091e-06
-1.0143e-05
1.31644e-06
-1.00342e-05
-1.16218e-06
-9.65905e-06
-3.60811e-06
-9.00096e-06
-5.92428e-06
-8.04266e-06
-7.98567e-06
-6.7815e-06
-9.62378e-06
-5.25237e-06
-1.06169e-05
-3.55695e-06
-1.06936e-05
-1.89367e-06
-9.55727e-06
-5.7445e-07
-6.94801e-06
-2.77005e-06
-6.72012e-07
3.41756e-06
-2.13764e-06
8.33459e-06
-3.89007e-06
1.1199e-05
-5.57909e-06
1.22747e-05
-7.01842e-06
1.1982e-05
-8.14256e-06
1.07267e-05
-8.95754e-06
8.83885e-06
-9.50115e-06
6.56023e-06
-9.81573e-06
4.05549e-06
-9.93176e-06
1.43247e-06
-9.85937e-06
-1.23456e-06
-9.58557e-06
-3.88192e-06
-9.07636e-06
-6.43349e-06
-8.28499e-06
-8.77704e-06
-7.16876e-06
-1.074e-05
-5.71778e-06
-1.20679e-05
-3.99739e-06
-1.2414e-05
-2.20048e-06
-1.13542e-05
-6.9224e-07
-8.45625e-06
-3.46229e-06
-8.21117e-07
4.23868e-06
-2.47773e-06
9.9912e-06
-4.29904e-06
1.30203e-05
-5.89387e-06
1.38696e-05
-7.11127e-06
1.31994e-05
-7.94916e-06
1.15646e-05
-8.47637e-06
9.36605e-06
-8.78036e-06
6.86423e-06
-8.93732e-06
4.21245e-06
-8.99717e-06
1.49231e-06
-8.97696e-06
-1.25477e-06
-8.85878e-06
-4.0001e-06
-8.59071e-06
-6.70156e-06
-8.09258e-06
-9.27517e-06
-7.27087e-06
-1.15617e-05
-6.04995e-06
-1.32888e-05
-4.42763e-06
-1.40363e-05
-2.5583e-06
-1.32235e-05
-8.49222e-07
-1.01653e-05
-4.31151e-06
-1.03216e-06
5.27084e-06
-2.87691e-06
1.1836e-05
-4.64928e-06
1.47927e-05
-5.95698e-06
1.51773e-05
-6.73973e-06
1.39822e-05
-7.09847e-06
1.19234e-05
-7.18446e-06
9.45204e-06
-7.1403e-06
6.82007e-06
-7.07454e-06
4.14669e-06
-7.05364e-06
1.47142e-06
-7.10063e-06
-1.20778e-06
-7.19459e-06
-3.90614e-06
-7.26964e-06
-6.62651e-06
-7.21493e-06
-9.32988e-06
-6.88175e-06
-1.18949e-05
-6.1093e-06
-1.40613e-05
-4.78686e-06
-1.53588e-05
-2.97155e-06
-1.50388e-05
-1.06872e-06
-1.20682e-05
-5.38023e-06
-1.34097e-06
6.61181e-06
-3.32076e-06
1.38157e-05
-4.8135e-06
1.62854e-05
-5.5313e-06
1.58951e-05
-5.59314e-06
1.4044e-05
-5.24538e-06
1.15756e-05
-4.73002e-06
8.93669e-06
-4.23599e-06
6.32603e-06
-3.89106e-06
3.80176e-06
-3.76822e-06
1.34859e-06
-3.8928e-06
-1.0832e-06
-4.24486e-06
-3.55408e-06
-4.75537e-06
-6.11601e-06
-5.29733e-06
-8.78792e-06
-5.67767e-06
-1.15145e-05
-5.64405e-06
-1.40949e-05
-4.93493e-06
-1.60679e-05
-3.4182e-06
-1.65556e-05
-1.38477e-06
-1.41016e-05
-6.76501e-06
-1.77966e-06
8.39147e-06
-3.70221e-06
1.57383e-05
-4.48844e-06
1.70717e-05
-4.17615e-06
1.55828e-05
-3.17751e-06
1.30453e-05
-1.90471e-06
1.03028e-05
-6.67159e-07
7.69914e-06
3.34247e-07
5.32463e-06
9.8192e-07
3.15409e-06
1.21512e-06
1.11539e-06
1.01285e-06
-8.80936e-07
3.88334e-07
-2.92956e-06
-6.04677e-07
-5.123e-06
-1.85346e-06
-7.53913e-06
-3.15753e-06
-1.02105e-05
-4.20023e-06
-1.30522e-05
-4.55229e-06
-1.57158e-05
-3.77808e-06
-1.73298e-05
-1.82482e-06
-1.60548e-05
-8.58982e-06
-2.29675e-06
1.06882e-05
-3.62678e-06
1.70683e-05
-2.98238e-06
1.64273e-05
-1.09029e-06
1.36907e-05
1.26883e-06
1.06862e-05
3.57415e-06
7.99748e-06
5.53122e-06
5.74207e-06
6.99469e-06
3.86116e-06
7.9016e-06
2.24717e-06
8.22781e-06
7.8918e-07
7.96507e-06
-6.18198e-07
7.11392e-06
-2.07841e-06
5.69038e-06
-3.69947e-06
3.74918e-06
-5.59792e-06
1.42904e-06
-7.89035e-06
-9.76307e-07
-1.06469e-05
-2.93477e-06
-1.37574e-05
-3.63874e-06
-1.66258e-05
-2.32672e-06
-1.73669e-05
-1.09165e-05
-2.50251e-06
1.31907e-05
-1.93608e-06
1.65019e-05
1.19331e-06
1.32979e-05
5.11738e-06
9.76662e-06
8.85291e-06
6.95069e-06
1.19939e-05
4.85651e-06
1.44176e-05
3.31837e-06
1.61217e-05
2.15701e-06
1.71402e-05
1.22866e-06
1.75034e-05
4.26025e-07
1.72214e-05
-3.36203e-07
1.62796e-05
-1.13658e-06
1.46418e-05
-2.06164e-06
1.22656e-05
-3.22179e-06
9.14241e-06
-4.76713e-06
5.38392e-06
-6.88837e-06
1.39311e-06
-9.76654e-06
-1.83165e-06
-1.3401e-05
-2.48282e-06
-1.67157e-05
-1.33994e-05
-5.77734e-07
1.37685e-05
4.63786e-06
1.12863e-05
1.10743e-05
6.86146e-06
1.66513e-05
4.1896e-06
2.09803e-05
2.62168e-06
2.41683e-05
1.6685e-06
2.64192e-05
1.06747e-06
2.79121e-05
6.64079e-07
2.87731e-05
3.67699e-07
2.90748e-05
1.24296e-07
2.88411e-05
-1.02501e-07
2.80485e-05
-3.43921e-07
2.66232e-05
-6.36337e-07
2.44354e-05
-1.03403e-06
2.12973e-05
-1.62901e-06
1.69898e-05
-2.58086e-06
1.13879e-05
-4.16472e-06
4.87115e-06
-6.88427e-06
-4.6914e-07
-1.13754e-05
-1.38685e-05
1.37685e-05
2.50548e-05
3.19162e-05
3.61058e-05
3.87275e-05
4.0396e-05
4.14635e-05
4.21276e-05
4.24953e-05
4.26195e-05
4.2517e-05
4.21731e-05
4.15368e-05
4.05028e-05
3.88737e-05
3.62929e-05
3.21282e-05
2.52439e-05
1.38685e-05
)
;

boundaryField
{
    movingWall
    {
        type            calculated;
        value           uniform 0;
    }
    fixedWalls
    {
        type            calculated;
        value           uniform 0;
    }
    frontAndBack
    {
        type            empty;
        value           nonuniform 0();
    }
}


// ************************************************************************* //
