/*--------------------------------*- C++ -*----------------------------------*\
  =========                 |
  \\      /  F ield         | OpenFOAM: The Open Source CFD Toolbox
   \\    /   O peration     | Website:  https://openfoam.org
    \\  /    A nd           | Version:  6
     \\/     M anipulation  |
\*---------------------------------------------------------------------------*/
FoamFile
{
    version     2.0;
    format      ascii;
    class       volVectorField;
    location    "0.07";
    object      U;
}
// * * * * * * * * * * * * * * * * * * * * * * * * * * * * * * * * * * * * * //

dimensions      [0 1 -1 0 0 0 0];

internalField   nonuniform List<vector> 
400
(
(0.000257244 -0.000253622 0)
(0.000160031 0.000105899 0)
(-0.0011441 0.000565432 0)
(-0.00345408 0.000894694 0)
(-0.00637533 0.00106136 0)
(-0.00949961 0.00107737 0)
(-0.0124586 0.000967449 0)
(-0.0149482 0.000760423 0)
(-0.0167389 0.000485002 0)
(-0.017677 0.000168648 0)
(-0.0176843 -0.000162061 0)
(-0.0167582 -0.00048059 0)
(-0.0149725 -0.000759564 0)
(-0.0124791 -0.000970176 0)
(-0.00950923 -0.00108228 0)
(-0.00637168 -0.00106609 0)
(-0.00344072 -0.00089691 0)
(-0.00112901 -0.000564096 0)
(0.000169354 -0.000102417 0)
(0.000259763 0.000255544 0)
(-6.70041e-05 -0.000189813 0)
(-0.00156992 0.00161564 0)
(-0.00562703 0.00361327 0)
(-0.0116672 0.00506591 0)
(-0.0188893 0.00579772 0)
(-0.0264588 0.00581464 0)
(-0.0335744 0.0052027 0)
(-0.0395456 0.00408654 0)
(-0.0438361 0.00260544 0)
(-0.0460814 0.000902795 0)
(-0.0460951 -0.000877064 0)
(-0.0438725 -0.00258859 0)
(-0.0395915 -0.00408416 0)
(-0.0336136 -0.00521492 0)
(-0.0264778 -0.00583572 0)
(-0.0188832 -0.00581806 0)
(-0.011642 -0.005076 0)
(-0.00559715 -0.00360874 0)
(-0.00155011 -0.00160146 0)
(-6.11237e-05 0.000199357 0)
(-0.000512647 0.00103765 0)
(-0.00365361 0.0056679 0)
(-0.0105054 0.0102137 0)
(-0.0199362 0.0134734 0)
(-0.03078 0.0150612 0)
(-0.0419193 0.0149518 0)
(-0.0522759 0.0133171 0)
(-0.0609117 0.0104378 0)
(-0.0670942 0.00664685 0)
(-0.0703233 0.00229872 0)
(-0.070343 -0.00224311 0)
(-0.0671469 -0.00661058 0)
(-0.0609801 -0.0104332 0)
(-0.0523377 -0.0133446 0)
(-0.0419555 -0.0149993 0)
(-0.0307818 -0.0151079 0)
(-0.0199093 -0.0134983 0)
(-0.010468 -0.0102063 0)
(-0.00362649 -0.00563721 0)
(-0.000504012 -0.00101397 0)
(-0.000907253 0.00338267 0)
(-0.00562466 0.0121118 0)
(-0.0152233 0.0199198 0)
(-0.0278988 0.0253258 0)
(-0.0420753 0.0278019 0)
(-0.056379 0.0273304 0)
(-0.0695201 0.0242068 0)
(-0.0803912 0.0189118 0)
(-0.0881357 0.0120211 0)
(-0.092172 0.00415352 0)
(-0.0922029 -0.00405363 0)
(-0.0882196 -0.0119543 0)
(-0.0805048 -0.0188997 0)
(-0.0696324 -0.0242513 0)
(-0.0564612 -0.0274121 0)
(-0.0421106 -0.0278862 0)
(-0.0278891 -0.025376 0)
(-0.0151888 -0.0199151 0)
(-0.00559367 -0.0120632 0)
(-0.000896173 -0.0033403 0)
(-0.0012556 0.00673217 0)
(-0.00747765 0.0208185 0)
(-0.0197782 0.0325542 0)
(-0.0356345 0.0403409 0)
(-0.0530153 0.0436265 0)
(-0.0702823 0.0424865 0)
(-0.085961 0.0374049 0)
(-0.0988214 0.0291118 0)
(-0.107933 0.0184651 0)
(-0.112673 0.00637956 0)
(-0.112725 -0.00620679 0)
(-0.108076 -0.0183443 0)
(-0.0990222 -0.0290779 0)
(-0.0861741 -0.037464 0)
(-0.0704623 -0.042612 0)
(-0.0531303 -0.0437665 0)
(-0.0356765 -0.0404372 0)
(-0.0197668 -0.0325684 0)
(-0.00745023 -0.0207584 0)
(-0.00124312 -0.00666906 0)
(-0.00158775 0.0110276 0)
(-0.00930043 0.0317574 0)
(-0.0243133 0.0481175 0)
(-0.0433471 0.0585031 0)
(-0.0638741 0.0624696 0)
(-0.0839791 0.0603019 0)
(-0.102022 0.0527629 0)
(-0.116689 0.0408961 0)
(-0.127018 0.025881 0)
(-0.132384 0.00894889 0)
(-0.13247 -0.00865202 0)
(-0.127258 -0.0256629 0)
(-0.117035 -0.0408122 0)
(-0.102407 -0.0528279 0)
(-0.0843323 -0.0604829 0)
(-0.0641377 -0.0626937 0)
(-0.0434947 -0.0586819 0)
(-0.0243584 -0.0481834 0)
(-0.00929006 -0.0317051 0)
(-0.00157623 -0.0109466 0)
(-0.00193386 0.0162735 0)
(-0.0111944 0.0449671 0)
(-0.0289997 0.0666531 0)
(-0.0512459 0.0798161 0)
(-0.0748656 0.0842685 0)
(-0.0976641 0.0806511 0)
(-0.117866 0.0701213 0)
(-0.134122 0.0541125 0)
(-0.145495 0.0341642 0)
(-0.151396 0.0118331 0)
(-0.151531 -0.0113323 0)
(-0.145877 -0.0337801 0)
(-0.134684 -0.0539311 0)
(-0.118512 -0.0701732 0)
(-0.0982865 -0.0808997 0)
(-0.0753692 -0.0846167 0)
(-0.0515733 -0.0801341 0)
(-0.0291493 -0.0668278 0)
(-0.0112219 -0.044962 0)
(-0.00192739 -0.0161863 0)
(-0.00232235 0.0225342 0)
(-0.0132583 0.0605614 0)
(-0.0339963 0.0882417 0)
(-0.0594897 0.104267 0)
(-0.086082 0.108898 0)
(-0.111316 0.10332 0)
(-0.133341 0.0892262 0)
(-0.150848 0.0685277 0)
(-0.162995 0.0431566 0)
(-0.169289 0.014986 0)
(-0.169488 -0.01417 0)
(-0.163564 -0.0425089 0)
(-0.151698 -0.0681776 0)
(-0.134343 -0.0892309 0)
(-0.112316 -0.103645 0)
(-0.0869334 -0.109421 0)
(-0.0600892 -0.104804 0)
(-0.0343132 -0.088612 0)
(-0.0133523 -0.0606705 0)
(-0.00232704 -0.0224652 0)
(-0.00278295 0.0299298 0)
(-0.0155899 0.0787248 0)
(-0.0394378 0.112979 0)
(-0.0681545 0.131778 0)
(-0.0974412 0.136102 0)
(-0.124634 0.127923 0)
(-0.147906 0.109651 0)
(-0.16611 0.0837629 0)
(-0.178603 0.0526033 0)
(-0.18506 0.0183264 0)
(-0.185336 -0.0170551 0)
(-0.179393 -0.0515661 0)
(-0.167309 -0.0831471 0)
(-0.149349 -0.109554 0)
(-0.126115 -0.128325 0)
(-0.0987533 -0.136854 0)
(-0.0691296 -0.132636 0)
(-0.0399975 -0.113666 0)
(-0.0157874 -0.0790493 0)
(-0.00280725 -0.0299211 0)
(-0.00335447 0.0386401 0)
(-0.0183021 0.0996996 0)
(-0.0454394 0.140927 0)
(-0.0772081 0.162119 0)
(-0.108628 0.165375 0)
(-0.136944 0.153789 0)
(-0.160529 0.13069 0)
(-0.178563 0.0992114 0)
(-0.190745 0.0620996 0)
(-0.197015 0.0217174 0)
(-0.197369 -0.0198336 0)
(-0.191767 -0.0605275 0)
(-0.180135 -0.0982099 0)
(-0.162458 -0.130414 0)
(-0.138979 -0.154248 0)
(-0.110495 -0.16641 0)
(-0.0786588 -0.163414 0)
(-0.0463235 -0.142085 0)
(-0.0186471 -0.10038 0)
(-0.00340945 -0.038756 0)
(-0.00409893 0.0489241 0)
(-0.0215511 0.123776 0)
(-0.0521049 0.172037 0)
(-0.0864698 0.194777 0)
(-0.119001 0.195818 0)
(-0.147076 0.179813 0)
(-0.169538 0.151242 0)
(-0.186127 0.113954 0)
(-0.197052 0.0710393 0)
(-0.202627 0.0249448 0)
(-0.203045 -0.0222987 0)
(-0.198267 -0.0687864 0)
(-0.188024 -0.112434 0)
(-0.171919 -0.150685 0)
(-0.149664 -0.180281 0)
(-0.121461 -0.197163 0)
(-0.0884671 -0.196623 0)
(-0.0533884 -0.173844 0)
(-0.0220917 -0.124992 0)
(-0.0041984 -0.0492554 0)
(-0.0051267 0.0611676 0)
(-0.0255787 0.15128 0)
(-0.0595207 0.206031 0)
(-0.0955189 0.228765 0)
(-0.127425 0.225932 0)
(-0.153159 0.20429 0)
(-0.172421 0.16969 0)
(-0.185799 0.126682 0)
(-0.194195 0.078573 0)
(-0.198397 0.0276998 0)
(-0.198839 -0.0241884 0)
(-0.195493 -0.0755265 0)
(-0.187865 -0.12452 0)
(-0.175089 -0.168728 0)
(-0.156166 -0.204676 0)
(-0.130409 -0.227566 0)
(-0.0980623 -0.231243 0)
(-0.0612494 -0.208665 0)
(-0.0263614 -0.153243 0)
(-0.00528719 -0.0618338 0)
(-0.00664078 0.0759787 0)
(-0.0307668 0.182539 0)
(-0.0676927 0.242184 0)
(-0.10348 0.262329 0)
(-0.131966 0.253354 0)
(-0.152295 0.224732 0)
(-0.16554 0.183798 0)
(-0.173443 0.135663 0)
(-0.17774 0.0835981 0)
(-0.179741 0.0295731 0)
(-0.180138 -0.0251952 0)
(-0.178923 -0.0797276 0)
(-0.175384 -0.132779 0)
(-0.168153 -0.182307 0)
(-0.155392 -0.224893 0)
(-0.135223 -0.255171 0)
(-0.106437 -0.265435 0)
(-0.0698454 -0.245775 0)
(-0.0318243 -0.185466 0)
(-0.00688095 -0.0771282 0)
(-0.00900639 0.0943525 0)
(-0.0376712 0.217754 0)
(-0.0763144 0.278916 0)
(-0.108546 0.292502 0)
(-0.129321 0.274542 0)
(-0.140051 0.237721 0)
(-0.143764 0.190708 0)
(-0.143571 0.138791 0)
(-0.142048 0.0848186 0)
(-0.140964 0.0300779 0)
(-0.141217 -0.0249955 0)
(-0.142833 -0.0802351 0)
(-0.144946 -0.135205 0)
(-0.145777 -0.188595 0)
(-0.142668 -0.23747 0)
(-0.132349 -0.276324 0)
(-0.111571 -0.296086 0)
(-0.0787424 -0.283475 0)
(-0.039 -0.221823 0)
(-0.00934445 -0.0961553 0)
(-0.0128139 0.11789 0)
(-0.0468842 0.256601 0)
(-0.0840759 0.313047 0)
(-0.106942 0.3145 0)
(-0.113813 0.284512 0)
(-0.109707 0.238952 0)
(-0.100033 0.187143 0)
(-0.089187 0.133835 0)
(-0.0803222 0.0809321 0)
(-0.0754112 0.0287235 0)
(-0.0754134 -0.0233101 0)
(-0.0803857 -0.0759426 0)
(-0.0894694 -0.129725 0)
(-0.100747 -0.184411 0)
(-0.111043 -0.238101 0)
(-0.11582 -0.285925 0)
(-0.109396 -0.318203 0)
(-0.0864133 -0.31836 0)
(-0.0483955 -0.261855 0)
(-0.0132576 -0.120514 0)
(-0.0187191 0.149116 0)
(-0.0581661 0.297218 0)
(-0.0867996 0.338474 0)
(-0.0908331 0.321009 0)
(-0.0757358 0.276835 0)
(-0.0512652 0.223678 0)
(-0.0249694 0.170011 0)
(-0.00184742 0.118986 0)
(0.0150533 0.0710035 0)
(0.0240508 0.0251627 0)
(0.0243804 -0.0200013 0)
(0.0159632 -0.0661269 0)
(-0.000587943 -0.114736 0)
(-0.023718 -0.166834 0)
(-0.0504462 -0.222126 0)
(-0.0757211 -0.277492 0)
(-0.0917546 -0.324249 0)
(-0.0883546 -0.343994 0)
(-0.059586 -0.303429 0)
(-0.0192315 -0.152674 0)
(-0.0262687 0.192206 0)
(-0.0674208 0.333818 0)
(-0.0730106 0.343736 0)
(-0.0444339 0.301332 0)
(0.00103675 0.244108 0)
(0.049536 0.187763 0)
(0.0931372 0.137494 0)
(0.127801 0.0937131 0)
(0.151696 0.0550063 0)
(0.164099 0.0194032 0)
(0.164752 -0.0151922 0)
(0.153582 -0.0509095 0)
(0.130687 -0.0899081 0)
(0.0966234 -0.134286 0)
(0.0530616 -0.185639 0)
(0.00394471 -0.243742 0)
(-0.0427242 -0.30343 0)
(-0.0727381 -0.348563 0)
(-0.0681301 -0.340318 0)
(-0.0266744 -0.196652 0)
(-0.0286681 0.250106 0)
(-0.0579612 0.349858 0)
(-0.0146284 0.309015 0)
(0.0622848 0.242294 0)
(0.14181 0.180543 0)
(0.211582 0.130345 0)
(0.267464 0.0911028 0)
(0.308673 0.0601133 0)
(0.335759 0.0345714 0)
(0.349487 0.0120813 0)
(0.350308 -0.00941921 0)
(0.338183 -0.0318865 0)
(0.312562 -0.0574248 0)
(0.272542 -0.0885261 0)
(0.217372 -0.128169 0)
(0.147606 -0.179321 0)
(0.0671968 -0.242855 0)
(-0.011495 -0.312147 0)
(-0.0569155 -0.355358 0)
(-0.0284566 -0.254841 0)
(0.0136401 0.288402 0)
(0.0297047 0.302273 0)
(0.152938 0.213909 0)
(0.281401 0.142477 0)
(0.381622 0.0942258 0)
(0.455948 0.0622706 0)
(0.509551 0.0408375 0)
(0.546405 0.0257995 0)
(0.569548 0.0144282 0)
(0.580977 0.00494075 0)
(0.581656 -0.00394719 0)
(0.57159 -0.0133705 0)
(0.549816 -0.0246212 0)
(0.514296 -0.0395078 0)
(0.461873 -0.0608336 0)
(0.388349 -0.0929107 0)
(0.288217 -0.141852 0)
(0.158678 -0.214821 0)
(0.0332943 -0.305062 0)
(0.0153876 -0.291422 0)
(0.304632 0.147055 0)
(0.405636 0.127652 0)
(0.568646 0.0748545 0)
(0.68527 0.041989 0)
(0.752864 0.0239896 0)
(0.794097 0.0140451 0)
(0.820526 0.00837934 0)
(0.837347 0.00494385 0)
(0.847386 0.00263705 0)
(0.852177 0.000860075 0)
(0.85239 -0.000753503 0)
(0.848045 -0.00250241 0)
(0.838512 -0.00474745 0)
(0.822296 -0.00807726 0)
(0.796585 -0.0135864 0)
(0.756164 -0.0233479 0)
(0.689392 -0.0412428 0)
(0.573078 -0.0742817 0)
(0.408903 -0.127713 0)
(0.306178 -0.147622 0)
)
;

boundaryField
{
    movingWall
    {
        type            fixedValue;
        value           uniform (1 0 0);
    }
    fixedWalls
    {
        type            noSlip;
    }
    frontAndBack
    {
        type            empty;
    }
}


// ************************************************************************* //
