/*--------------------------------*- C++ -*----------------------------------*\
  =========                 |
  \\      /  F ield         | OpenFOAM: The Open Source CFD Toolbox
   \\    /   O peration     | Website:  https://openfoam.org
    \\  /    A nd           | Version:  6
     \\/     M anipulation  |
\*---------------------------------------------------------------------------*/
FoamFile
{
    version     2.0;
    format      ascii;
    class       volScalarField;
    location    "0.075";
    object      p;
}
// * * * * * * * * * * * * * * * * * * * * * * * * * * * * * * * * * * * * * //

dimensions      [0 2 -2 0 0 0 0];

internalField   nonuniform List<scalar> 
400
(
-3.89518e-08
-0.00556503
-0.0124244
-0.0176041
-0.0194243
-0.0171504
-0.0107318
-0.000604382
0.0124597
0.0274528
0.0432072
0.0584662
0.0719661
0.0825403
0.0892539
0.0915699
0.0895463
0.0840458
0.0769539
0.0713806
0.00551079
-0.000216648
-0.00559003
-0.00912774
-0.010031
-0.00778552
-0.00232356
0.00604438
0.0167347
0.0289627
0.0418033
0.0542539
0.0653095
0.0740533
0.0797657
0.08205
0.0809766
0.0771613
0.0715836
0.0658716
0.0127781
0.00482665
-0.000990018
-0.00423598
-0.00494292
-0.00284679
0.00204803
0.00944665
0.0188477
0.029588
0.0408817
0.0518692
0.061679
0.0695052
0.0746957
0.0768542
0.0759674
0.0723984
0.0663187
0.0583636
0.019299
0.00830011
0.00106323
-0.00264668
-0.00355227
-0.00161423
0.00305731
0.0101226
0.0190927
0.0293524
0.040178
0.0507686
0.0602942
0.0679597
0.0730793
0.0751685
0.0740818
0.0699601
0.0623268
0.0512287
0.0234635
0.00925376
0.000317067
-0.004071
-0.00523065
-0.00331964
0.00144175
0.00864679
0.0177876
0.0282608
0.0393639
0.0503099
0.0602595
0.0683725
0.0738717
0.0761336
0.0748522
0.0699621
0.0604303
0.0459181
0.0240814
0.00660852
-0.00410223
-0.00917078
-0.0104652
-0.00832462
-0.00308173
0.00477673
0.0147046
0.0260869
0.0382158
0.0502868
0.0614145
0.0706699
0.0771354
0.0799996
0.07876
0.073136
0.0615691
0.0434393
0.0200996
-0.000711363
-0.0131712
-0.0187716
-0.0199329
-0.017181
-0.0109703
-0.00187838
0.00949891
0.0225231
0.0364682
0.0504949
0.0636477
0.0748748
0.0830716
0.0871825
0.0864519
0.080338
0.0667105
0.0446878
0.0104082
-0.0138636
-0.0279612
-0.0337902
-0.0343894
-0.030506
-0.0227361
-0.0117597
0.00177479
0.0172076
0.0337982
0.0506743
0.0668033
0.0809892
0.0918976
0.0981613
0.0986874
0.0925757
0.0769827
0.0506988
-0.00631121
-0.0342166
-0.0497351
-0.0552987
-0.0547076
-0.0489997
-0.0389486
-0.0253489
-0.00889576
0.00974877
0.029854
0.0505392
0.0707113
0.0890272
0.103888
0.113539
0.116431
0.111144
0.0938594
0.0628696
-0.0317232
-0.0634736
-0.0800178
-0.0845374
-0.0818426
-0.0733797
-0.0601525
-0.043082
-0.0228906
-0.000203889
0.0243083
0.049811
0.0751991
0.0990108
0.11937
0.134055
0.140911
0.137751
0.119358
0.0831944
-0.0680273
-0.103837
-0.120676
-0.122901
-0.11675
-0.104257
-0.0867226
-0.0651991
-0.0403962
-0.012836
0.0169562
0.0482845
0.080125
0.110973
0.138706
0.160581
0.173665
0.174664
0.156298
0.114581
-0.118297
-0.158273
-0.174016
-0.171889
-0.16024
-0.141937
-0.118647
-0.0915301
-0.0612069
-0.0279901
0.00786411
0.045939
0.0854432
0.124978
0.162283
0.19411
0.21659
0.224891
0.208673
0.161361
-0.187165
-0.230944
-0.242894
-0.232984
-0.212729
-0.186127
-0.15523
-0.121215
-0.0844747
-0.0449498
-0.00245331
0.0430703
0.0912824
0.141135
0.190471
0.235688
0.271936
0.292379
0.282217
0.230214
-0.282314
-0.327962
-0.330766
-0.307334
-0.273802
-0.235491
-0.194699
-0.152386
-0.108458
-0.0622455
-0.012889
0.040382
0.0979703
0.159539
0.22346
0.286198
0.342145
0.382167
0.385279
0.331987
-0.417629
-0.458512
-0.441419
-0.394998
-0.341411
-0.286991
-0.23374
-0.181871
-0.130363
-0.0775944
-0.0217565
0.0389082
0.105877
0.179992
0.260819
0.345731
0.429198
0.500153
0.530017
0.485253
-0.618902
-0.636
-0.578009
-0.493663
-0.410827
-0.335219
-0.267192
-0.205173
-0.146505
-0.0881709
-0.0271181
0.0396491
0.115002
0.201488
0.300776
0.412604
0.533387
0.652028
0.733157
0.721888
-0.93423
-0.878346
-0.741326
-0.597703
-0.474354
-0.372603
-0.288634
-0.21727
-0.153189
-0.0914707
-0.0275825
0.0428604
0.124347
0.22163
0.339613
0.482573
0.652059
0.84123
1.01571
1.0964
-1.47376
-1.20829
-0.920506
-0.691338
-0.5176
-0.387839
-0.290149
-0.213135
-0.147609
-0.0864241
-0.0235925
0.0465242
0.129966
0.233957
0.367781
0.543053
0.771149
1.05921
1.40529
1.72745
-2.53128
-1.63908
-1.04599
-0.71112
-0.496257
-0.352601
-0.254812
-0.183561
-0.12581
-0.0729192
-0.0183526
0.0438418
0.120277
0.219744
0.355604
0.548515
0.826514
1.23822
1.92099
2.91492
-4.3494
-2.0484
-0.974275
-0.563778
-0.359235
-0.241664
-0.17134
-0.124525
-0.0876643
-0.0531294
-0.0157696
0.0289237
0.086102
0.163296
0.273879
0.443189
0.718485
1.2261
2.41447
4.82993
)
;

boundaryField
{
    movingWall
    {
        type            zeroGradient;
    }
    fixedWalls
    {
        type            zeroGradient;
    }
    frontAndBack
    {
        type            empty;
    }
}


// ************************************************************************* //
