/*--------------------------------*- C++ -*----------------------------------*\
  =========                 |
  \\      /  F ield         | OpenFOAM: The Open Source CFD Toolbox
   \\    /   O peration     | Website:  https://openfoam.org
    \\  /    A nd           | Version:  6
     \\/     M anipulation  |
\*---------------------------------------------------------------------------*/
FoamFile
{
    version     2.0;
    format      ascii;
    class       surfaceScalarField;
    location    "0.075";
    object      phi;
}
// * * * * * * * * * * * * * * * * * * * * * * * * * * * * * * * * * * * * * //

dimensions      [0 3 -1 0 0 0 0];

internalField   nonuniform List<scalar> 
760
(
1.35967e-08
-1.3597e-08
-2.18412e-08
3.54378e-08
-1.10933e-07
8.90919e-08
-2.37625e-07
1.26692e-07
-3.82837e-07
1.45213e-07
-5.28579e-07
1.45741e-07
-6.59394e-07
1.30816e-07
-7.6292e-07
1.03525e-07
-8.29994e-07
6.70738e-08
-8.54693e-07
2.47e-08
-8.34462e-07
-2.02314e-08
-7.70345e-07
-6.41169e-08
-6.67292e-07
-1.03053e-07
-5.34403e-07
-1.32889e-07
-3.84963e-07
-1.4944e-07
-2.36025e-07
-1.48938e-07
-1.07214e-07
-1.28812e-07
-1.84387e-08
-8.87749e-08
1.4971e-08
-3.34096e-08
1.49711e-08
-3.32039e-08
1.96074e-08
-1.74472e-07
1.76706e-07
-4.19198e-07
3.33818e-07
-7.37797e-07
4.4529e-07
-1.09215e-06
4.99568e-07
-1.4437e-06
4.97288e-07
-1.7577e-06
4.44814e-07
-2.00544e-06
3.51272e-07
-2.16533e-06
2.26962e-07
-2.22344e-06
8.28092e-08
-2.17402e-06
-6.96545e-08
-2.01999e-06
-2.18142e-07
-1.77345e-06
-3.49596e-07
-1.45582e-06
-4.50518e-07
-1.09744e-06
-5.07822e-07
-7.35932e-07
-5.10443e-07
-4.12878e-07
-4.51867e-07
-1.68062e-07
-3.33591e-07
-3.01689e-08
-1.71303e-07
-1.51977e-08
-8.91284e-08
1.08735e-07
-3.44741e-07
4.32319e-07
-7.38076e-07
7.27153e-07
-1.22419e-06
9.31404e-07
-1.75085e-06
1.02623e-06
-2.2659e-06
1.01234e-06
-2.72217e-06
9.01086e-07
-3.08042e-06
7.09517e-07
-3.31095e-06
4.57499e-07
-3.39464e-06
1.66496e-07
-3.32361e-06
-1.40681e-07
-3.10196e-06
-4.39795e-07
-2.74627e-06
-7.05282e-07
-2.2858e-06
-9.10991e-07
-1.76171e-06
-1.03192e-06
-1.22487e-06
-1.04728e-06
-7.31574e-07
-9.45162e-07
-3.36775e-07
-7.28389e-07
-8.49262e-08
-4.23152e-07
-1.00124e-07
-1.40299e-07
2.49034e-07
-5.07932e-07
7.99952e-07
-1.04568e-06
1.2649e-06
-1.68933e-06
1.57505e-06
-2.37232e-06
1.70922e-06
-3.0312e-06
1.67122e-06
-3.60978e-06
1.47966e-06
-4.06176e-06
1.1615e-06
-4.35227e-06
7.48005e-07
-4.45876e-06
2.72989e-07
-4.37178e-06
-2.27658e-07
-4.09571e-06
-7.15863e-07
-3.64948e-06
-1.15151e-06
-3.06696e-06
-1.49351e-06
-2.39647e-06
-1.70241e-06
-1.6988e-06
-1.74496e-06
-1.04306e-06
-1.6009e-06
-5.00287e-07
-1.27116e-06
-1.35332e-07
-7.88107e-07
-2.35456e-07
-1.87537e-07
4.36571e-07
-6.64105e-07
1.27652e-06
-1.34376e-06
1.94455e-06
-2.14065e-06
2.37195e-06
-2.97279e-06
2.54136e-06
-3.76604e-06
2.46447e-06
-4.45694e-06
2.17057e-06
-4.99434e-06
1.6989e-06
-5.34013e-06
1.09379e-06
-5.46957e-06
4.02433e-07
-5.37183e-06
-3.25401e-07
-5.05066e-06
-1.03703e-06
-4.52548e-06
-1.6767e-06
-3.83231e-06
-2.18668e-06
-3.02424e-06
-2.51048e-06
-2.17039e-06
-2.59881e-06
-1.35276e-06
-2.41852e-06
-6.60614e-07
-1.96331e-06
-1.82766e-07
-1.26595e-06
-4.18222e-07
-2.33457e-07
6.70028e-07
-8.1838e-07
1.86144e-06
-1.63978e-06
2.76595e-06
-2.58848e-06
3.32065e-06
-3.5661e-06
3.51898e-06
-4.48809e-06
3.38646e-06
-5.28508e-06
2.96755e-06
-5.90285e-06
2.31668e-06
-6.30171e-06
1.49264e-06
-6.45579e-06
5.56514e-07
-6.35294e-06
-4.28246e-07
-5.99537e-06
-1.3946e-06
-5.40109e-06
-2.27098e-06
-4.60594e-06
-2.98182e-06
-3.66554e-06
-3.45088e-06
-2.65605e-06
-3.6083e-06
-1.6728e-06
-3.40177e-06
-8.25627e-07
-2.81049e-06
-2.30768e-07
-1.86081e-06
-6.48991e-07
-2.80609e-07
9.50637e-07
-9.76447e-07
2.55728e-06
-1.94143e-06
3.73093e-06
-3.04117e-06
4.42039e-06
-4.16016e-06
4.63797e-06
-5.2042e-06
4.4305e-06
-6.09979e-06
3.86314e-06
-6.79183e-06
3.00872e-06
-7.24103e-06
1.94184e-06
-7.42166e-06
7.37142e-07
-7.32046e-06
-5.29444e-07
-6.93707e-06
-1.77799e-06
-6.28601e-06
-2.92204e-06
-5.40008e-06
-3.86775e-06
-4.33446e-06
-4.5165e-06
-3.1703e-06
-4.77245e-06
-2.01602e-06
-4.55606e-06
-1.00424e-06
-3.82226e-06
-2.83035e-07
-2.58202e-06
-9.32026e-07
-3.3126e-07
1.2819e-06
-1.14336e-06
3.36938e-06
-2.25455e-06
4.84212e-06
-3.5025e-06
5.66834e-06
-4.75435e-06
5.88982e-06
-5.90798e-06
5.58414e-06
-6.88865e-06
4.84381e-06
-7.64366e-06
3.76372e-06
-8.13693e-06
2.43511e-06
-8.34473e-06
9.44944e-07
-8.25327e-06
-6.2091e-07
-7.85862e-06
-2.17264e-06
-7.16929e-06
-3.61137e-06
-6.21121e-06
-4.82583e-06
-5.03474e-06
-5.69297e-06
-3.72217e-06
-6.08503e-06
-2.39316e-06
-5.88506e-06
-1.20492e-06
-5.01051e-06
-3.43135e-07
-3.4438e-06
-1.27516e-06
-3.87572e-07
1.66947e-06
-1.3235e-06
4.30531e-06
-2.58243e-06
6.10105e-06
-3.97034e-06
7.05625e-06
-5.33749e-06
7.25697e-06
-6.57723e-06
6.82388e-06
-7.61835e-06
5.88492e-06
-8.41537e-06
4.56075e-06
-8.93957e-06
2.95931e-06
-9.17201e-06
1.17738e-06
-9.09947e-06
-6.9345e-07
-8.71369e-06
-2.55843e-06
-8.0142e-06
-4.31086e-06
-7.0151e-06
-5.82493e-06
-5.75546e-06
-6.95261e-06
-4.31203e-06
-7.52846e-06
-2.81125e-06
-7.38584e-06
-1.43521e-06
-6.38655e-06
-4.14622e-07
-4.46439e-06
-1.68978e-06
-4.52217e-07
2.12169e-06
-1.5214e-06
5.37449e-06
-2.92603e-06
7.50568e-06
-4.43556e-06
8.56578e-06
-5.88544e-06
8.70685e-06
-7.17055e-06
8.109e-06
-8.23056e-06
6.94493e-06
-9.03416e-06
5.36436e-06
-9.56559e-06
3.49074e-06
-9.8146e-06
1.42639e-06
-9.77048e-06
-7.3757e-07
-9.42023e-06
-2.90868e-06
-8.75138e-06
-4.97971e-06
-7.76014e-06
-6.81618e-06
-6.46537e-06
-8.24738e-06
-4.92791e-06
-9.06591e-06
-3.27201e-06
-9.04174e-06
-1.7019e-06
-7.95666e-06
-5.01527e-07
-5.66476e-06
-2.19131e-06
-5.2949e-07
2.65118e-06
-1.74326e-06
6.58826e-06
-3.28426e-06
9.04668e-06
-4.88026e-06
1.01618e-05
-6.3574e-06
1.0184e-05
-7.62232e-06
9.37391e-06
-8.6363e-06
7.95891e-06
-9.39149e-06
6.11954e-06
-9.89209e-06
3.99135e-06
-1.01414e-05
1.67573e-06
-1.0134e-05
-7.44982e-07
-9.85255e-06
-3.19014e-06
-9.27003e-06
-5.56224e-06
-8.35828e-06
-7.72793e-06
-7.10493e-06
-9.50073e-06
-5.53987e-06
-1.0631e-05
-3.76953e-06
-1.08121e-05
-2.01123e-06
-9.71495e-06
-6.09243e-07
-7.06675e-06
-2.80055e-06
-6.27161e-07
3.27834e-06
-1.99877e-06
7.95986e-06
-3.65315e-06
1.07011e-05
-5.27349e-06
1.17821e-05
-6.68895e-06
1.15995e-05
-7.83446e-06
1.05194e-05
-8.70785e-06
8.8323e-06
-9.33581e-06
6.7475e-06
-9.75021e-06
4.40575e-06
-9.97298e-06
1.8985e-06
-1.00072e-05
-7.10744e-07
-9.83293e-06
-3.36443e-06
-9.40757e-06
-5.9876e-06
-8.67329e-06
-8.4622e-06
-7.57457e-06
-1.05995e-05
-6.09071e-06
-1.21148e-05
-4.28556e-06
-1.26172e-05
-2.36885e-06
-1.16317e-05
-7.46e-07
-8.6896e-06
-3.54655e-06
-7.59494e-07
4.03783e-06
-2.30242e-06
9.50279e-06
-4.02121e-06
1.24199e-05
-5.56067e-06
1.33216e-05
-6.77826e-06
1.2817e-05
-7.66271e-06
1.14039e-05
-8.26705e-06
9.43664e-06
-8.66391e-06
7.14437e-06
-8.91909e-06
4.66093e-06
-9.07686e-06
2.05627e-06
-9.1519e-06
-6.35702e-07
-9.12457e-06
-3.39176e-06
-8.93893e-06
-6.17324e-06
-8.50594e-06
-8.89519e-06
-7.71743e-06
-1.1388e-05
-6.48005e-06
-1.33522e-05
-4.77944e-06
-1.43178e-05
-2.77781e-06
-1.36333e-05
-9.25173e-07
-1.05422e-05
-4.47173e-06
-9.51659e-07
4.98949e-06
-2.67109e-06
1.12222e-05
-4.35437e-06
1.41031e-05
-5.63939e-06
1.46066e-05
-6.45957e-06
1.36372e-05
-6.89331e-06
1.18376e-05
-7.06847e-06
9.6118e-06
-7.11111e-06
7.187e-06
-7.12198e-06
4.6718e-06
-7.16731e-06
2.1016e-06
-7.27462e-06
-5.28391e-07
-7.42889e-06
-3.23749e-06
-7.56762e-06
-6.03451e-06
-7.57677e-06
-8.88604e-06
-7.29449e-06
-1.16703e-05
-6.53675e-06
-1.411e-05
-5.16668e-06
-1.56879e-05
-3.23092e-06
-1.55691e-05
-1.16814e-06
-1.2605e-05
-5.63987e-06
-1.2433e-06
6.23279e-06
-3.10723e-06
1.30861e-05
-4.55493e-06
1.55508e-05
-5.30748e-06
1.53591e-05
-5.45465e-06
1.37844e-05
-5.20634e-06
1.15893e-05
-4.77713e-06
9.18259e-06
-4.34214e-06
6.75201e-06
-4.02744e-06
4.3571e-06
-3.91301e-06
1.98717e-06
-4.03643e-06
-4.04974e-07
-4.39198e-06
-2.88194e-06
-4.9231e-06
-5.50339e-06
-5.50889e-06
-8.30026e-06
-5.9502e-06
-1.12289e-05
-5.97158e-06
-1.40886e-05
-5.27294e-06
-1.63866e-05
-3.6852e-06
-1.71568e-05
-1.50379e-06
-1.47864e-05
-7.14366e-06
-1.67707e-06
7.90986e-06
-3.53451e-06
1.49436e-05
-4.36006e-06
1.63764e-05
-4.15995e-06
1.5159e-05
-3.29184e-06
1.29163e-05
-2.12447e-06
1.04219e-05
-9.44695e-07
8.00282e-06
5.11282e-08
5.75619e-06
7.38134e-07
3.6701e-06
1.04142e-06
1.68388e-06
9.21971e-07
-2.85523e-07
3.7291e-07
-2.33288e-06
-5.7225e-07
-4.55823e-06
-1.8177e-06
-7.05481e-06
-3.17001e-06
-9.87663e-06
-4.29997e-06
-1.29586e-05
-4.73791e-06
-1.59486e-05
-3.98594e-06
-1.79088e-05
-1.94673e-06
-1.68256e-05
-9.09038e-06
-2.22685e-06
1.01367e-05
-3.6041e-06
1.63208e-05
-3.11409e-06
1.58864e-05
-1.40462e-06
1.34496e-05
8.09801e-07
1.07019e-05
3.0413e-06
8.19043e-06
5.00061e-06
6.04351e-06
6.53218e-06
4.22462e-06
7.55688e-06
2.64539e-06
8.03282e-06
1.20794e-06
7.93341e-06
-1.86116e-07
7.23951e-06
-1.63897e-06
5.945e-06
-3.26372e-06
4.08023e-06
-5.19003e-06
1.76144e-06
-7.55784e-06
-7.27065e-07
-1.04701e-05
-2.83117e-06
-1.38445e-05
-3.67634e-06
-1.70636e-05
-2.40684e-06
-1.80951e-05
-1.14972e-05
-2.54891e-06
1.26856e-05
-2.19041e-06
1.59623e-05
6.92307e-07
1.30037e-05
4.4246e-06
9.71726e-06
8.06608e-06
7.06039e-06
1.12113e-05
5.04519e-06
1.37176e-05
3.53721e-06
1.55595e-05
2.38276e-06
1.67517e-05
1.45319e-06
1.73103e-05
6.49329e-07
1.72343e-05
-1.10076e-07
1.64976e-05
-9.02274e-07
1.50492e-05
-1.8153e-06
1.28247e-05
-2.96556e-06
9.78466e-06
-4.51782e-06
6.00731e-06
-6.69277e-06
1.87919e-06
-9.71638e-06
-1.57015e-06
-1.36143e-05
-2.43288e-06
-1.72324e-05
-1.39301e-05
-8.43984e-07
1.35296e-05
4.06225e-06
1.10561e-05
1.02821e-05
6.78386e-06
1.57669e-05
4.23242e-06
2.01161e-05
2.71122e-06
2.33996e-05
1.76165e-06
2.57868e-05
1.15003e-06
2.74349e-05
7.34669e-07
2.8459e-05
4.29008e-07
2.89282e-05
1.80185e-07
2.88659e-05
-4.77356e-08
2.82491e-05
-2.85544e-07
2.70028e-05
-5.69007e-07
2.49893e-05
-9.52065e-07
2.20003e-05
-1.52883e-06
1.7778e-05
-2.47045e-06
1.21465e-05
-4.08487e-06
5.45042e-06
-6.91815e-06
-1.96807e-07
-1.15852e-05
-1.41269e-05
1.35296e-05
2.45857e-05
3.13696e-05
3.5602e-05
3.83132e-05
4.00749e-05
4.12249e-05
4.19596e-05
4.23886e-05
4.25687e-05
4.2521e-05
4.22355e-05
4.16665e-05
4.07144e-05
3.91856e-05
3.67151e-05
3.26303e-05
2.57121e-05
1.41269e-05
)
;

boundaryField
{
    movingWall
    {
        type            calculated;
        value           uniform 0;
    }
    fixedWalls
    {
        type            calculated;
        value           uniform 0;
    }
    frontAndBack
    {
        type            empty;
        value           nonuniform 0();
    }
}


// ************************************************************************* //
