/*--------------------------------*- C++ -*----------------------------------*\
  =========                 |
  \\      /  F ield         | OpenFOAM: The Open Source CFD Toolbox
   \\    /   O peration     | Website:  https://openfoam.org
    \\  /    A nd           | Version:  6
     \\/     M anipulation  |
\*---------------------------------------------------------------------------*/
FoamFile
{
    version     2.0;
    format      ascii;
    class       volVectorField;
    location    "0.075";
    object      U;
}
// * * * * * * * * * * * * * * * * * * * * * * * * * * * * * * * * * * * * * //

dimensions      [0 1 -1 0 0 0 0];

internalField   nonuniform List<vector> 
400
(
(0.000238653 -0.00023542 0)
(0.000125361 0.000116655 0)
(-0.00114758 0.000553951 0)
(-0.00337364 0.000861976 0)
(-0.00616806 0.0010158 0)
(-0.00914795 0.00103006 0)
(-0.0119734 0.000928684 0)
(-0.0143638 0.000737212 0)
(-0.0161027 0.000479909 0)
(-0.0170387 0.000179948 0)
(-0.0170862 -0.000139154 0)
(-0.0162291 -0.000452056 0)
(-0.0145264 -0.000730634 0)
(-0.0121185 -0.000943913 0)
(-0.00923073 -0.00105921 0)
(-0.00617068 -0.00104518 0)
(-0.0033134 -0.000877632 0)
(-0.00106933 -0.000548935 0)
(0.000176407 -9.7674e-05 0)
(0.000252817 0.000247595 0)
(-8.33254e-05 -0.000152861 0)
(-0.00156855 0.00160175 0)
(-0.00550283 0.00350253 0)
(-0.0113149 0.00486463 0)
(-0.018229 0.00554247 0)
(-0.0254613 0.00555492 0)
(-0.0322673 0.00498579 0)
(-0.0380042 0.00394617 0)
(-0.0421646 0.00255615 0)
(-0.0443909 0.000939896 0)
(-0.0444841 -0.000772667 0)
(-0.0424138 -0.00244274 0)
(-0.0383287 -0.0039213 0)
(-0.0325644 -0.0050519 0)
(-0.0256437 -0.00567978 0)
(-0.0182582 -0.00566993 0)
(-0.0112175 -0.00493735 0)
(-0.00535875 -0.00349091 0)
(-0.0014654 -0.00152901 0)
(-5.14427e-05 0.000207413 0)
(-0.00051846 0.00106217 0)
(-0.00359269 0.00554544 0)
(-0.0102242 0.00986968 0)
(-0.0192969 0.0129294 0)
(-0.0296872 0.0144023 0)
(-0.0403465 0.0142917 0)
(-0.0502711 0.0127647 0)
(-0.0585844 0.0100722 0)
(-0.0645908 0.006504 0)
(-0.0677982 0.00237098 0)
(-0.0679337 -0.00199701 0)
(-0.0649564 -0.00624904 0)
(-0.0590716 -0.0100139 0)
(-0.0507386 -0.0129104 0)
(-0.0406687 -0.0145729 0)
(-0.0297988 -0.014697 0)
(-0.0192187 -0.0131101 0)
(-0.010055 -0.00986539 0)
(-0.00345566 -0.00539601 0)
(-0.000472459 -0.000933825 0)
(-0.000905116 0.00336764 0)
(-0.00550968 0.0118066 0)
(-0.014793 0.0192322 0)
(-0.0269892 0.0243087 0)
(-0.0405865 0.0266075 0)
(-0.0542994 0.026154 0)
(-0.0669274 0.0232328 0)
(-0.0774332 0.0182726 0)
(-0.0849988 0.0117761 0)
(-0.0890466 0.00428856 0)
(-0.0892537 -0.00360976 0)
(-0.0855657 -0.0113027 0)
(-0.0782131 -0.0181415 0)
(-0.0677234 -0.0234641 0)
(-0.0549248 -0.0266386 0)
(-0.040925 -0.0271407 0)
(-0.0270358 -0.0246672 0)
(-0.014657 -0.0192774 0)
(-0.00535745 -0.0115814 0)
(-0.000846532 -0.00314362 0)
(-0.00124846 0.00665318 0)
(-0.00731455 0.0202589 0)
(-0.0192044 0.0314184 0)
(-0.0344634 0.0387348 0)
(-0.0511527 0.0417915 0)
(-0.0677451 0.0407174 0)
(-0.0828709 0.0359715 0)
(-0.0953749 0.0282025 0)
(-0.104361 0.0181583 0)
(-0.1092 0.00664512 0)
(-0.109534 -0.00548261 0)
(-0.105287 -0.017319 0)
(-0.0966869 -0.0279089 0)
(-0.0842836 -0.0362718 0)
(-0.06897 -0.0414616 0)
(-0.0519806 -0.0426732 0)
(-0.0348307 -0.0393988 0)
(-0.0192152 -0.0316148 0)
(-0.00718826 -0.0200015 0)
(-0.00118283 -0.00632495 0)
(-0.00157568 0.0108623 0)
(-0.00908437 0.0308691 0)
(-0.0235809 0.0464247 0)
(-0.0418935 0.0561946 0)
(-0.0616247 0.059905 0)
(-0.0809987 0.0578957 0)
(-0.0984947 0.0508798 0)
(-0.112874 0.039778 0)
(-0.123201 0.0256146 0)
(-0.128823 0.00947143 0)
(-0.129358 -0.00751683 0)
(-0.124704 -0.0241494 0)
(-0.115053 -0.039152 0)
(-0.100933 -0.0511967 0)
(-0.0832537 -0.05897 0)
(-0.0633364 -0.0613053 0)
(-0.0428881 -0.0573826 0)
(-0.0239267 -0.046971 0)
(-0.00905962 -0.0306971 0)
(-0.00151604 -0.0104487 0)
(-0.0019126 0.0159943 0)
(-0.0109037 0.043661 0)
(-0.028061 0.0642803 0)
(-0.0494451 0.0766888 0)
(-0.0721687 0.0809012 0)
(-0.0942092 0.0776011 0)
(-0.113923 0.0678545 0)
(-0.130031 0.0529166 0)
(-0.141602 0.0341157 0)
(-0.147994 0.0128118 0)
(-0.14882 -0.00959283 0)
(-0.143939 -0.0316185 0)
(-0.133478 -0.0516775 0)
(-0.117893 -0.0680763 0)
(-0.0980442 -0.0790788 0)
(-0.0752869 -0.0830567 0)
(-0.0514914 -0.0787357 0)
(-0.0290162 -0.0655114 0)
(-0.0110983 -0.0438059 0)
(-0.00188183 -0.0155627 0)
(-0.0022823 0.0220971 0)
(-0.0128506 0.0587158 0)
(-0.0327648 0.085036 0)
(-0.0572271 0.100194 0)
(-0.082826 0.104672 0)
(-0.107311 0.0996628 0)
(-0.128966 0.0867067 0)
(-0.146539 0.0674623 0)
(-0.159166 0.0435848 0)
(-0.166265 0.0166984 0)
(-0.16747 -0.0115629 0)
(-0.162597 -0.0394834 0)
(-0.151674 -0.0651935 0)
(-0.135015 -0.0866348 0)
(-0.113348 -0.101599 0)
(-0.0879731 -0.107879 0)
(-0.0608574 -0.103567 0)
(-0.0346915 -0.0874601 0)
(-0.0134296 -0.0595669 0)
(-0.00231517 -0.0217882 0)
(-0.00270816 0.0292621 0)
(-0.0149999 0.076166 0)
(-0.037788 0.108744 0)
(-0.0652716 0.126617 0)
(-0.0934771 0.130981 0)
(-0.119974 0.123748 0)
(-0.143066 0.10708 0)
(-0.161625 0.0831139 0)
(-0.174949 0.0538435 0)
(-0.182589 0.0211213 0)
(-0.184237 -0.013253 0)
(-0.179674 -0.0474048 0)
(-0.16879 -0.0792507 0)
(-0.151678 -0.1064 0)
(-0.128816 -0.126141 0)
(-0.101305 -0.135568 0)
(-0.071087 -0.131912 0)
(-0.0411245 -0.113067 0)
(-0.0161773 -0.0783111 0)
(-0.00285342 -0.0293179 0)
(-0.00322168 0.0376267 0)
(-0.0174418 0.0961841 0)
(-0.0432154 0.135415 0)
(-0.0735252 0.15572 0)
(-0.103807 0.159358 0)
(-0.131548 0.149246 0)
(-0.155216 0.128341 0)
(-0.173961 0.0993312 0)
(-0.187367 0.0645408 0)
(-0.195215 0.0259856 0)
(-0.197317 -0.0144721 0)
(-0.193433 -0.0549194 0)
(-0.183285 -0.093175 0)
(-0.166654 -0.126599 0)
(-0.143613 -0.151987 0)
(-0.114867 -0.165625 0)
(-0.0821129 -0.163618 0)
(-0.0484414 -0.142537 0)
(-0.019476 -0.100441 0)
(-0.00354405 -0.0384188 0)
(-0.0038768 0.0473945 0)
(-0.0203142 0.118981 0)
(-0.0491439 0.164957 0)
(-0.0818365 0.187005 0)
(-0.113247 0.188967 0)
(-0.140968 0.175133 0)
(-0.163859 0.149456 0)
(-0.181549 0.115233 0)
(-0.194078 0.0750761 0)
(-0.201573 0.0310603 0)
(-0.20404 -0.0150347 0)
(-0.201256 -0.0614263 0)
(-0.192752 -0.106011 0)
(-0.177916 -0.146052 0)
(-0.156244 -0.177933 0)
(-0.12777 -0.197074 0)
(-0.0936185 -0.19817 0)
(-0.0567077 -0.175918 0)
(-0.0234926 -0.126399 0)
(-0.00445833 -0.0494502 0)
(-0.00477537 0.0588844 0)
(-0.0238526 0.14481 0)
(-0.0557006 0.197089 0)
(-0.0899036 0.219559 0)
(-0.120857 0.218419 0)
(-0.146597 0.199805 0)
(-0.166709 0.168857 0)
(-0.181566 0.129495 0)
(-0.191846 0.084525 0)
(-0.198146 0.035924 0)
(-0.200747 -0.0147967 0)
(-0.199492 -0.0661975 0)
(-0.193738 -0.116487 0)
(-0.182424 -0.163072 0)
(-0.164305 -0.202119 0)
(-0.138436 -0.228231 0)
(-0.10489 -0.234453 0)
(-0.0658858 -0.212927 0)
(-0.0284572 -0.156629 0)
(-0.00571567 -0.0629059 0)
(-0.00611248 0.0726332 0)
(-0.028457 0.173967 0)
(-0.0630167 0.23117 0)
(-0.0971121 0.251798 0)
(-0.125065 0.245533 0)
(-0.145937 0.220889 0)
(-0.160498 0.184324 0)
(-0.17016 0.140288 0)
(-0.1764 0.0915962 0)
(-0.180375 0.0399243 0)
(-0.182703 -0.0137022 0)
(-0.183352 -0.0684236 0)
(-0.181565 -0.123038 0)
(-0.175857 -0.175422 0)
(-0.164156 -0.221871 0)
(-0.144238 -0.256418 0)
(-0.114537 -0.270388 0)
(-0.0757155 -0.252654 0)
(-0.0346947 -0.191477 0)
(-0.00752537 -0.0794987 0)
(-0.00824989 0.0895744 0)
(-0.0347529 0.206719 0)
(-0.0710527 0.265861 0)
(-0.102114 0.281068 0)
(-0.123129 0.267021 0)
(-0.13511 0.235076 0)
(-0.140563 0.192934 0)
(-0.142182 0.145289 0)
(-0.142304 0.0946662 0)
(-0.142629 0.0421838 0)
(-0.144112 -0.0118312 0)
(-0.146898 -0.0673115 0)
(-0.150236 -0.123915 0)
(-0.152367 -0.180373 0)
(-0.150483 -0.233621 0)
(-0.140946 -0.277676 0)
(-0.119953 -0.302449 0)
(-0.0854028 -0.293046 0)
(-0.0426157 -0.230972 0)
(-0.0102478 -0.100299 0)
(-0.0117949 0.111295 0)
(-0.0435111 0.243007 0)
(-0.0789876 0.298462 0)
(-0.101825 0.303051 0)
(-0.110079 0.278173 0)
(-0.107982 0.23809 0)
(-0.100258 0.191215 0)
(-0.0908911 0.14191 0)
(-0.0828958 0.0919755 0)
(-0.0783149 0.0417037 0)
(-0.0783154 -0.00942554 0)
(-0.0832341 -0.0622507 0)
(-0.0924977 -0.117465 0)
(-0.104399 -0.175006 0)
(-0.115792 -0.233079 0)
(-0.12187 -0.286617 0)
(-0.116302 -0.325086 0)
(-0.0928299 -0.330072 0)
(-0.0524822 -0.274274 0)
(-0.0144275 -0.126889 0)
(-0.0174962 0.140422 0)
(-0.0549083 0.281558 0)
(-0.0834266 0.323622 0)
(-0.0892345 0.310963 0)
(-0.0768063 0.272722 0)
(-0.0548453 0.225009 0)
(-0.0302316 0.175687 0)
(-0.00772205 0.127856 0)
(0.00957868 0.0820776 0)
(0.019756 0.0376265 0)
(0.0217138 -0.00686047 0)
(0.0149856 -0.0530431 0)
(-0.000228434 -0.102608 0)
(-0.022766 -0.156855 0)
(-0.0499255 -0.215847 0)
(-0.076651 -0.276662 0)
(-0.094654 -0.330211 0)
(-0.0926519 -0.356415 0)
(-0.063356 -0.318496 0)
(-0.0205438 -0.161582 0)
(-0.025215 0.181479 0)
(-0.0656737 0.317605 0)
(-0.0738336 0.330755 0)
(-0.0490506 0.294412 0)
(-0.0070514 0.24303 0)
(0.039205 0.191162 0)
(0.0821236 0.143931 0)
(0.117568 0.102077 0)
(0.143412 0.0645509 0)
(0.15858 0.0296618 0)
(0.162458 -0.00453284 0)
(0.154598 -0.0401461 0)
(0.134686 -0.0794749 0)
(0.102808 -0.124934 0)
(0.0601339 -0.178622 0)
(0.0102268 -0.240897 0)
(-0.0388819 -0.306855 0)
(-0.0722164 -0.359402 0)
(-0.0698954 -0.356255 0)
(-0.0276234 -0.207964 0)
(-0.028975 0.238668 0)
(-0.0602489 0.336056 0)
(-0.0223115 0.300354 0)
(0.0498046 0.239606 0)
(0.126464 0.182276 0)
(0.195435 0.134685 0)
(0.252306 0.0967517 0)
(0.295826 0.0663329 0)
(0.326107 0.0410176 0)
(0.343586 0.0186489 0)
(0.348474 -0.00271162 0)
(0.34052 -0.024988 0)
(0.318932 -0.0503504 0)
(0.282454 -0.0814975 0)
(0.229807 -0.121837 0)
(0.160869 -0.175063 0)
(0.078977 -0.242918 0)
(-0.00368708 -0.318908 0)
(-0.0539996 -0.368743 0)
(-0.0276817 -0.266909 0)
(0.00961431 0.28088 0)
(0.0212215 0.294796 0)
(0.138713 0.210829 0)
(0.263935 0.143257 0)
(0.363691 0.0969473 0)
(0.439368 0.0655459 0)
(0.495408 0.0440314 0)
(0.535248 0.028726 0)
(0.561606 0.017102 0)
(0.576347 0.00746006 0)
(0.580409 -0.00144726 0)
(0.573812 -0.0107349 0)
(0.555603 -0.021688 0)
(0.523675 -0.0361442 0)
(0.474607 -0.0570508 0)
(0.403654 -0.0891627 0)
(0.304429 -0.139511 0)
(0.172852 -0.216159 0)
(0.0426595 -0.311288 0)
(0.0201126 -0.298846 0)
(0.300983 0.145481 0)
(0.397789 0.127064 0)
(0.557516 0.075908 0)
(0.674409 0.0436527 0)
(0.743723 0.0255485 0)
(0.786819 0.0152389 0)
(0.814988 0.00921651 0)
(0.83333 0.00551701 0)
(0.844671 0.0030383 0)
(0.850614 0.00116438 0)
(0.851911 -0.000481578 0)
(0.848672 -0.00219577 0)
(0.84037 -0.00432051 0)
(0.82562 -0.00740851 0)
(0.801689 -0.0125148 0)
(0.763371 -0.0217391 0)
(0.698919 -0.0392005 0)
(0.583895 -0.0724421 0)
(0.417309 -0.127335 0)
(0.310269 -0.148803 0)
)
;

boundaryField
{
    movingWall
    {
        type            fixedValue;
        value           uniform (1 0 0);
    }
    fixedWalls
    {
        type            noSlip;
    }
    frontAndBack
    {
        type            empty;
    }
}


// ************************************************************************* //
