/*--------------------------------*- C++ -*----------------------------------*\
  =========                 |
  \\      /  F ield         | OpenFOAM: The Open Source CFD Toolbox
   \\    /   O peration     | Website:  https://openfoam.org
    \\  /    A nd           | Version:  6
     \\/     M anipulation  |
\*---------------------------------------------------------------------------*/
FoamFile
{
    version     2.0;
    format      ascii;
    class       volScalarField;
    location    "0.05";
    object      p;
}
// * * * * * * * * * * * * * * * * * * * * * * * * * * * * * * * * * * * * * //

dimensions      [0 2 -2 0 0 0 0];

internalField   nonuniform List<scalar> 
400
(
5.01209e-08
-0.00514568
-0.0113637
-0.0158961
-0.0172132
-0.0146614
-0.00822056
0.00168325
0.0143183
0.0287421
0.0438708
0.0585416
0.0715845
0.0819147
0.0886516
0.0912721
0.0897953
0.0849818
0.078543
0.0733667
0.00508871
-0.000211914
-0.00507398
-0.00812026
-0.008623
-0.00612033
-0.000567603
0.00772791
0.0182069
0.0301265
0.0426174
0.054741
0.0655567
0.074204
0.0800003
0.082557
0.0819156
0.0786234
0.0735655
0.0682526
0.0116901
0.00432747
-0.000961855
-0.00375925
-0.00409449
-0.00172968
0.00331713
0.0107533
0.0200921
0.0306972
0.0418206
0.0526479
0.0623558
0.0701817
0.0755038
0.0779358
0.0774467
0.0743578
0.0688135
0.0614084
0.01752
0.00731861
0.00069021
-0.00255349
-0.00307317
-0.000834836
0.00404591
0.0112322
0.0202441
0.0304835
0.0412529
0.0517861
0.0612927
0.0690158
0.0743003
0.0766777
0.075996
0.0723741
0.0653608
0.0550148
0.0211408
0.00790403
-0.000346666
-0.00424027
-0.00498863
-0.00273953
0.00228673
0.00968601
0.018954
0.0294963
0.0406277
0.051588
0.061572
0.0697763
0.0754573
0.0780151
0.077148
0.0727845
0.0639571
0.0503751
0.0214821
0.00508561
-0.00489444
-0.00944986
-0.0103102
-0.00779538
-0.00223608
0.00588096
0.0160071
0.0275282
0.0397463
0.0518772
0.0630664
0.0724219
0.0790639
0.0822126
0.0813798
0.0762914
0.0654816
0.0483999
0.0175666
-0.00215968
-0.0138941
-0.0189841
-0.0196997
-0.0165443
-0.009972
-0.000565748
0.0110686
0.0242854
0.0383607
0.0524704
0.0656871
0.0769973
0.0853389
0.0896954
0.0893352
0.0837323
0.070863
0.049925
0.00831587
-0.0149705
-0.0284075
-0.0337572
-0.0339157
-0.02961
-0.0214409
-0.0101018
0.00373949
0.0194069
0.036154
0.0531182
0.0692927
0.0835208
0.0945148
0.100954
0.101777
0.0961077
0.0812101
0.0559534
-0.0076039
-0.0347325
-0.0497156
-0.0548618
-0.0538543
-0.0477178
-0.0372383
-0.0232341
-0.00643059
0.0124829
0.0327611
0.0535266
0.0737095
0.0920068
0.10687
0.116597
0.119675
0.114714
0.0979932
0.0678745
-0.0319249
-0.0632047
-0.0793934
-0.0835863
-0.0805197
-0.0716359
-0.0579597
-0.0404479
-0.0198662
0.00312019
0.0278165
0.0533843
0.0787383
0.102457
0.122718
0.137355
0.144256
0.141264
0.12324
0.087697
-0.066967
-0.102685
-0.119389
-0.121403
-0.114945
-0.102053
-0.0840575
-0.0620593
-0.0368264
-0.00893508
0.0210524
0.0524285
0.0841861
0.114862
0.142389
0.164083
0.177053
0.178033
0.159789
0.118364
-0.11597
-0.156265
-0.172118
-0.169917
-0.158044
-0.139378
-0.11562
-0.0879945
-0.0571972
-0.0236122
0.0124529
0.0505615
0.0899364
0.129222
0.166217
0.197733
0.219942
0.228033
0.211666
0.164264
-0.183766
-0.228258
-0.240562
-0.230729
-0.21035
-0.18343
-0.152059
-0.117495
-0.0802257
-0.0402845
0.00244859
0.0479996
0.0960426
0.145577
0.194512
0.239307
0.275152
0.295216
0.284638
0.232148
-0.278239
-0.324922
-0.328304
-0.305107
-0.271558
-0.232973
-0.191692
-0.148774
-0.104245
-0.0575505
-0.0079167
0.0453882
0.102778
0.163972
0.227417
0.289648
0.3451
0.384621
0.387099
0.332955
-0.413439
-0.45556
-0.439226
-0.393194
-0.339691
-0.285026
-0.231249
-0.178694
-0.126489
-0.0731501
-0.0169724
0.0437527
0.110512
0.18421
0.264502
0.348849
0.431767
0.502162
0.531258
0.485366
-0.615237
-0.633626
-0.57652
-0.492693
-0.410013
-0.334155
-0.265535
-0.202723
-0.143237
-0.0842186
-0.0227339
0.0441524
0.119317
0.205368
0.30408
0.415294
0.535501
0.653578
0.733903
0.721374
-0.931672
-0.876979
-0.740898
-0.597876
-0.474706
-0.372663
-0.288009
-0.215732
-0.150696
-0.0881538
-0.0237045
0.0469643
0.128334
0.225211
0.342602
0.484909
0.653783
0.842397
1.01612
1.09561
-1.47263
-1.20814
-0.921283
-0.692746
-0.519174
-0.389067
-0.290605
-0.21256
-0.145935
-0.0837594
-0.0201879
0.0503292
0.133803
0.237492
0.370763
0.545358
0.772782
1.06025
1.40565
1.72681
-2.53147
-1.64004
-1.04789
-0.71373
-0.499082
-0.355079
-0.256455
-0.184039
-0.124986
-0.0708466
-0.0152477
0.0476458
0.124386
0.223764
0.3592
0.551455
0.828698
1.23967
1.92173
2.91488
-4.35032
-2.05009
-0.977145
-0.567645
-0.363535
-0.245705
-0.174481
-0.126286
-0.0877835
-0.0515751
-0.0127189
0.0331292
0.091016
0.168434
0.278785
0.447489
0.721927
1.22857
2.41597
4.83065
)
;

boundaryField
{
    movingWall
    {
        type            zeroGradient;
    }
    fixedWalls
    {
        type            zeroGradient;
    }
    frontAndBack
    {
        type            empty;
    }
}


// ************************************************************************* //
