/*--------------------------------*- C++ -*----------------------------------*\
  =========                 |
  \\      /  F ield         | OpenFOAM: The Open Source CFD Toolbox
   \\    /   O peration     | Website:  https://openfoam.org
    \\  /    A nd           | Version:  6
     \\/     M anipulation  |
\*---------------------------------------------------------------------------*/
FoamFile
{
    version     2.0;
    format      ascii;
    class       surfaceScalarField;
    location    "0.05";
    object      phi;
}
// * * * * * * * * * * * * * * * * * * * * * * * * * * * * * * * * * * * * * //

dimensions      [0 3 -1 0 0 0 0];

internalField   nonuniform List<scalar> 
760
(
1.1834e-08
-1.18344e-08
-2.22411e-08
3.40752e-08
-1.05734e-07
8.34927e-08
-2.23418e-07
1.17685e-07
-3.5757e-07
1.34151e-07
-4.91665e-07
1.34095e-07
-6.11658e-07
1.19993e-07
-7.06423e-07
9.47654e-08
-7.67787e-07
6.13633e-08
-7.90491e-07
2.27037e-08
-7.72253e-07
-1.82376e-08
-7.13958e-07
-5.82941e-08
-6.19943e-07
-9.40149e-08
-4.9827e-07
-1.21673e-07
-3.60841e-07
-1.37428e-07
-2.23122e-07
-1.3772e-07
-1.03145e-07
-1.19978e-07
-1.95026e-08
-8.36421e-08
1.30504e-08
-3.25526e-08
1.30506e-08
-3.18814e-08
2.00471e-08
-1.64161e-07
1.66355e-07
-3.91501e-07
3.10832e-07
-6.85963e-07
4.12146e-07
-1.01218e-06
4.60371e-07
-1.33479e-06
4.567e-07
-1.62223e-06
4.07436e-07
-1.84868e-06
3.21215e-07
-1.99483e-06
2.07517e-07
-2.04829e-06
7.61643e-08
-2.0039e-06
-6.26342e-08
-1.86413e-06
-1.98059e-07
-1.6396e-06
-3.18543e-07
-1.34934e-06
-4.11942e-07
-1.02053e-06
-4.66231e-07
-6.87342e-07
-4.70911e-07
-3.8796e-07
-4.19361e-07
-1.59505e-07
-3.12097e-07
-2.94463e-08
-1.62612e-07
-1.63956e-08
-8.32812e-08
1.03329e-07
-3.20826e-07
4.039e-07
-6.84994e-07
6.75e-07
-1.13357e-06
8.60722e-07
-1.6181e-06
9.44904e-07
-2.09073e-06
9.29324e-07
-2.50857e-06
8.25277e-07
-2.83627e-06
6.48915e-07
-3.04726e-06
4.18513e-07
-3.12446e-06
1.53364e-07
-3.06076e-06
-1.26336e-07
-2.8596e-06
-3.99217e-07
-2.53555e-06
-6.42596e-07
-2.11458e-06
-8.32908e-07
-1.63369e-06
-9.47121e-07
-1.13912e-06
-9.65482e-07
-6.82658e-07
-8.75825e-07
-3.1556e-07
-6.79195e-07
-8.00742e-08
-3.98097e-07
-9.64696e-08
-1.30288e-07
2.33616e-07
-4.71392e-07
7.45004e-07
-9.69445e-07
1.17305e-06
-1.56424e-06
1.45552e-06
-2.19389e-06
1.57456e-06
-2.79999e-06
1.53542e-06
-3.3313e-06
1.35659e-06
-3.74601e-06
1.06362e-06
-4.0128e-06
6.85307e-07
-4.11148e-06
2.52045e-07
-4.03345e-06
-2.04372e-07
-3.78231e-06
-6.5035e-07
-3.37468e-06
-1.05023e-06
-2.84068e-06
-1.36691e-06
-2.22387e-06
-1.56393e-06
-1.57971e-06
-1.60965e-06
-9.72014e-07
-1.48352e-06
-4.6719e-07
-1.18402e-06
-1.2664e-07
-7.38647e-07
-2.23109e-07
-1.74301e-07
4.07917e-07
-6.17734e-07
1.18844e-06
-1.24966e-06
1.80498e-06
-1.98938e-06
2.19523e-06
-2.76028e-06
2.34546e-06
-3.49372e-06
2.26886e-06
-4.13154e-06
1.99441e-06
-4.62731e-06
1.5594e-06
-4.94668e-06
1.00468e-06
-5.06738e-06
3.72746e-07
-4.97946e-06
-2.92297e-07
-4.68588e-06
-9.43922e-07
-4.20363e-06
-1.53248e-06
-3.56485e-06
-2.00569e-06
-2.8176e-06
-2.31118e-06
-2.02531e-06
-2.40194e-06
-1.26418e-06
-2.24464e-06
-6.18043e-07
-1.83016e-06
-1.71053e-07
-1.18564e-06
-3.94163e-07
-2.18262e-07
6.26179e-07
-7.6618e-07
1.73636e-06
-1.53538e-06
2.57418e-06
-2.42257e-06
3.08243e-06
-3.33512e-06
3.258e-06
-4.19412e-06
3.12785e-06
-4.93552e-06
2.73582e-06
-5.50984e-06
2.13371e-06
-5.88108e-06
1.37592e-06
-6.02584e-06
5.17504e-07
-5.93286e-06
-3.85281e-07
-5.60359e-06
-1.27319e-06
-5.05371e-06
-2.08236e-06
-4.31527e-06
-2.74413e-06
-3.43892e-06
-3.18753e-06
-2.49514e-06
-3.34572e-06
-1.57319e-06
-3.16659e-06
-7.76945e-07
-2.6264e-06
-2.17085e-07
-1.7455e-06
-6.11248e-07
-2.64968e-07
8.91147e-07
-9.23306e-07
2.39469e-06
-1.83601e-06
3.48688e-06
-2.87471e-06
4.12113e-06
-3.9296e-06
4.31289e-06
-4.91189e-06
4.11015e-06
-5.75313e-06
3.57706e-06
-6.40268e-06
2.78326e-06
-6.82473e-06
1.79797e-06
-6.99584e-06
6.8861e-07
-6.90362e-06
-4.77493e-07
-6.5471e-06
-1.62971e-06
-5.93869e-06
-2.69077e-06
-5.10775e-06
-3.57507e-06
-4.10489e-06
-4.19039e-06
-3.00588e-06
-4.44473e-06
-1.91322e-06
-4.25925e-06
-9.53448e-07
-3.58618e-06
-2.68574e-07
-2.43037e-06
-8.79822e-07
-3.16852e-07
1.208e-06
-1.09473e-06
3.17258e-06
-2.15848e-06
4.55062e-06
-3.35125e-06
5.3139e-06
-4.54527e-06
5.50691e-06
-5.64324e-06
5.20812e-06
-6.57487e-06
4.5087e-06
-7.29138e-06
3.49976e-06
-7.75976e-06
2.26635e-06
-7.95829e-06
8.87146e-07
-7.874e-06
-5.61788e-07
-7.5025e-06
-2.00121e-06
-6.85059e-06
-3.34268e-06
-5.94136e-06
-4.4843e-06
-4.82132e-06
-5.31042e-06
-3.56807e-06
-5.69798e-06
-2.29595e-06
-5.53137e-06
-1.15642e-06
-4.72571e-06
-3.29172e-07
-3.25762e-06
-1.20899e-06
-3.76128e-07
1.58413e-06
-1.28498e-06
4.08143e-06
-2.50633e-06
5.77197e-06
-3.85039e-06
6.65796e-06
-5.17138e-06
6.8279e-06
-6.36648e-06
6.40322e-06
-7.36803e-06
5.51025e-06
-8.13368e-06
4.26541e-06
-8.63714e-06
2.76981e-06
-8.86111e-06
1.11111e-06
-8.79306e-06
-6.29833e-07
-8.42447e-06
-2.3698e-06
-7.75371e-06
-4.01345e-06
-6.79283e-06
-5.44518e-06
-5.57807e-06
-6.52518e-06
-4.18264e-06
-7.09341e-06
-2.72873e-06
-6.98528e-06
-1.39355e-06
-6.06089e-06
-4.02461e-07
-4.24871e-06
-1.61145e-06
-4.45354e-07
2.02948e-06
-1.49814e-06
5.13422e-06
-2.87962e-06
7.15345e-06
-4.3616e-06
8.13993e-06
-5.78194e-06
8.24825e-06
-7.03799e-06
7.65927e-06
-8.07177e-06
6.54402e-06
-8.85408e-06
5.04772e-06
-9.37079e-06
3.28653e-06
-9.61277e-06
1.35309e-06
-9.56982e-06
-6.72783e-07
-9.22889e-06
-2.71072e-06
-8.57695e-06
-4.66539e-06
-7.60917e-06
-6.41296e-06
-6.34292e-06
-7.79144e-06
-4.83698e-06
-8.59935e-06
-3.21288e-06
-8.60937e-06
-1.67143e-06
-7.60234e-06
-4.92418e-07
-5.42773e-06
-2.10387e-06
-5.28476e-07
2.55796e-06
-1.73923e-06
6.34498e-06
-3.27497e-06
8.68919e-06
-4.86354e-06
9.7285e-06
-6.33161e-06
9.71631e-06
-7.58663e-06
8.91429e-06
-8.59086e-06
7.54826e-06
-9.33731e-06
5.79416e-06
-9.83089e-06
3.7801e-06
-1.00754e-05
1.59756e-06
-1.00655e-05
-6.82626e-07
-9.7842e-06
-2.99204e-06
-9.20449e-06
-5.2451e-06
-8.2983e-06
-7.31915e-06
-7.05326e-06
-9.03647e-06
-5.49902e-06
-1.01536e-05
-3.74125e-06
-1.03671e-05
-1.99572e-06
-9.34786e-06
-6.04278e-07
-6.81917e-06
-2.70815e-06
-6.32654e-07
3.19061e-06
-2.01595e-06
7.72827e-06
-3.68468e-06
1.03579e-05
-5.31966e-06
1.13635e-05
-6.74859e-06
1.11452e-05
-7.90548e-06
1.00712e-05
-8.78754e-06
8.43032e-06
-9.42101e-06
6.42763e-06
-9.83735e-06
4.19645e-06
-1.00582e-05
1.81844e-06
-1.00867e-05
-6.54198e-07
-9.90293e-06
-3.17577e-06
-9.46525e-06
-5.68278e-06
-8.71699e-06
-8.06741e-06
-7.60419e-06
-1.01493e-05
-6.10788e-06
-1.16499e-05
-4.29333e-06
-1.21817e-05
-2.371e-06
-1.12702e-05
-7.45996e-07
-8.44417e-06
-3.45415e-06
-7.71289e-07
3.9619e-06
-2.34007e-06
9.29705e-06
-4.09221e-06
1.21101e-05
-5.66794e-06
1.29392e-05
-6.92136e-06
1.23987e-05
-7.83857e-06
1.09884e-05
-8.4704e-06
9.06215e-06
-8.88761e-06
6.84483e-06
-9.1544e-06
4.46325e-06
-9.31399e-06
1.97803e-06
-9.38061e-06
-5.8758e-07
-9.33498e-06
-3.2214e-06
-9.12247e-06
-5.89529e-06
-8.65629e-06
-8.53359e-06
-7.83135e-06
-1.09742e-05
-6.55794e-06
-1.29233e-05
-4.82533e-06
-1.39143e-05
-2.79883e-06
-1.32967e-05
-9.30549e-07
-1.03125e-05
-4.3847e-06
-9.68506e-07
4.93041e-06
-2.72528e-06
1.10538e-05
-4.45771e-06
1.38425e-05
-5.7975e-06
1.4279e-05
-6.67318e-06
1.32743e-05
-7.15898e-06
1.14742e-05
-7.37902e-06
9.28219e-06
-7.45606e-06
6.92188e-06
-7.48816e-06
4.49534e-06
-7.53962e-06
2.02949e-06
-7.63712e-06
-4.90086e-07
-7.76603e-06
-3.09249e-06
-7.8656e-06
-5.79571e-06
-7.82492e-06
-8.57427e-06
-7.48647e-06
-1.13126e-05
-6.67148e-06
-1.37383e-05
-5.2487e-06
-1.53371e-05
-3.2701e-06
-1.52753e-05
-1.1788e-06
-1.24038e-05
-5.5635e-06
-1.26287e-06
6.19328e-06
-3.17089e-06
1.29618e-05
-4.67788e-06
1.53495e-05
-5.49804e-06
1.50992e-05
-5.71527e-06
1.34916e-05
-5.53401e-06
1.12929e-05
-5.16376e-06
8.91194e-06
-4.77503e-06
6.53315e-06
-4.49009e-06
4.2104e-06
-4.38625e-06
1.92565e-06
-4.49987e-06
-3.76464e-07
-4.82564e-06
-2.76672e-06
-5.3091e-06
-5.31225e-06
-5.83308e-06
-8.05029e-06
-6.20366e-06
-1.09421e-05
-6.15175e-06
-1.37902e-05
-5.38436e-06
-1.61045e-05
-3.73949e-06
-1.69202e-05
-1.51899e-06
-1.46242e-05
-7.08249e-06
-1.69619e-06
7.88947e-06
-3.59821e-06
1.48639e-05
-4.48576e-06
1.6237e-05
-4.35859e-06
1.4972e-05
-3.56804e-06
1.2701e-05
-2.47652e-06
1.02014e-05
-1.36467e-06
7.80009e-06
-4.23131e-07
5.59161e-06
2.27904e-07
3.55937e-06
5.16768e-07
1.63678e-06
4.05905e-07
-2.65601e-07
-1.11998e-07
-2.24882e-06
-1.00577e-06
-4.41848e-06
-2.1837e-06
-6.87236e-06
-3.45801e-06
-9.66776e-06
-4.50637e-06
-1.27419e-05
-4.86687e-06
-1.5744e-05
-4.04962e-06
-1.77374e-05
-1.96494e-06
-1.67089e-05
-9.04743e-06
-2.24203e-06
1.01315e-05
-3.65774e-06
1.62796e-05
-3.22452e-06
1.58038e-05
-1.58497e-06
1.33324e-05
5.52579e-07
1.05635e-05
2.70712e-06
8.04687e-06
4.59634e-06
5.91087e-06
6.07107e-06
4.11688e-06
7.05735e-06
2.57308e-06
7.51676e-06
1.17738e-06
7.4242e-06
-1.7304e-07
6.75995e-06
-1.58457e-06
5.51543e-06
-3.17396e-06
3.71675e-06
-5.07368e-06
1.47457e-06
-7.42558e-06
-9.3352e-07
-1.03338e-05
-2.9609e-06
-1.37166e-05
-3.74093e-06
-1.69574e-05
-2.42558e-06
-1.80243e-05
-1.1473e-05
-2.55731e-06
1.26888e-05
-2.22575e-06
1.5948e-05
6.12251e-07
1.29658e-05
4.28559e-06
9.65911e-06
7.85953e-06
6.98954e-06
1.09355e-05
4.97089e-06
1.33779e-05
3.46851e-06
1.51675e-05
2.32729e-06
1.63241e-05
1.41647e-06
1.6867e-05
6.34473e-07
1.67963e-05
-1.02386e-07
1.60854e-05
-8.73603e-07
1.46805e-05
-1.76908e-06
1.25134e-05
-2.90659e-06
9.53954e-06
-4.45173e-06
5.83132e-06
-6.62555e-06
1.76892e-06
-9.6542e-06
-1.62482e-06
-1.35637e-05
-2.44866e-06
-1.72004e-05
-1.39217e-05
-8.44668e-07
1.35335e-05
4.04859e-06
1.10548e-05
1.02403e-05
6.77412e-06
1.56839e-05
4.21544e-06
1.99836e-05
2.68983e-06
2.32154e-05
1.73911e-06
2.55545e-05
1.12939e-06
2.71635e-05
7.18337e-07
2.81613e-05
4.18614e-07
2.86193e-05
1.76539e-07
2.85615e-05
-4.46066e-08
2.79642e-05
-2.76299e-07
2.675e-05
-5.54852e-07
2.47779e-05
-9.34571e-07
2.1836e-05
-1.50974e-06
1.76619e-05
-2.45154e-06
1.20756e-05
-4.06787e-06
5.41689e-06
-6.90493e-06
-2.05492e-07
-1.15781e-05
-1.41272e-05
1.35335e-05
2.45882e-05
3.13624e-05
3.55778e-05
3.82676e-05
4.00067e-05
4.11361e-05
4.18545e-05
4.22731e-05
4.24496e-05
4.2405e-05
4.21287e-05
4.15739e-05
4.06393e-05
3.91296e-05
3.6678e-05
3.26102e-05
2.57052e-05
1.41272e-05
)
;

boundaryField
{
    movingWall
    {
        type            calculated;
        value           uniform 0;
    }
    fixedWalls
    {
        type            calculated;
        value           uniform 0;
    }
    frontAndBack
    {
        type            empty;
        value           nonuniform 0();
    }
}


// ************************************************************************* //
