/*--------------------------------*- C++ -*----------------------------------*\
  =========                 |
  \\      /  F ield         | OpenFOAM: The Open Source CFD Toolbox
   \\    /   O peration     | Website:  https://openfoam.org
    \\  /    A nd           | Version:  6
     \\/     M anipulation  |
\*---------------------------------------------------------------------------*/
FoamFile
{
    version     2.0;
    format      ascii;
    class       volVectorField;
    location    "0.05";
    object      U;
}
// * * * * * * * * * * * * * * * * * * * * * * * * * * * * * * * * * * * * * //

dimensions      [0 1 -1 0 0 0 0];

internalField   nonuniform List<vector> 
400
(
(0.000213324 -0.000210343 0)
(8.77381e-05 0.000121382 0)
(-0.00111493 0.000524825 0)
(-0.00319068 0.000805195 0)
(-0.00577857 0.000942072 0)
(-0.00852517 0.000950608 0)
(-0.0111201 0.000853913 0)
(-0.0133097 0.000676099 0)
(-0.0149002 0.00043958 0)
(-0.0157572 0.00016526 0)
(-0.0158045 -0.000126065 0)
(-0.0150273 -0.000412166 0)
(-0.0134769 -0.000668229 0)
(-0.0112769 -0.000866482 0)
(-0.00862778 -0.000976971 0)
(-0.00580677 -0.000970145 0)
(-0.00315595 -0.00082217 0)
(-0.00105511 -0.000523533 0)
(0.000130984 -0.000106408 0)
(0.00022644 0.00022147 0)
(-8.8987e-05 -0.000114254 0)
(-0.00149216 0.00152554 0)
(-0.0051601 0.00327491 0)
(-0.0105452 0.00451313 0)
(-0.016922 0.00511569 0)
(-0.023568 0.00510738 0)
(-0.0298043 0.00457062 0)
(-0.03505 0.00361047 0)
(-0.0388508 0.00233756 0)
(-0.0408883 0.000863634 0)
(-0.040985 -0.000696328 0)
(-0.0391123 -0.00222022 0)
(-0.0353993 -0.00357615 0)
(-0.0301422 -0.00462359 0)
(-0.0238069 -0.00522042 0)
(-0.0170169 -0.00523884 0)
(-0.0105108 -0.00459317 0)
(-0.00506267 -0.0032809 0)
(-0.00141164 -0.00147208 0)
(-6.20626e-05 0.000161002 0)
(-0.000488306 0.00103003 0)
(-0.00335353 0.0052005 0)
(-0.0095056 0.00917593 0)
(-0.0178923 0.0119565 0)
(-0.0274653 0.0132646 0)
(-0.0372576 0.0131199 0)
(-0.0463531 0.0116887 0)
(-0.0539592 0.00920868 0)
(-0.0594518 0.00594629 0)
(-0.062392 0.00218109 0)
(-0.0625357 -0.00179493 0)
(-0.0598434 -0.00567256 0)
(-0.0544931 -0.0091227 0)
(-0.0468901 -0.0118024 0)
(-0.0376691 -0.0133752 0)
(-0.0276766 -0.0135521 0)
(-0.0179082 -0.0121568 0)
(-0.00940701 -0.00921474 0)
(-0.00325242 -0.00509925 0)
(-0.000451007 -0.000925574 0)
(-0.000841831 0.0031747 0)
(-0.00511803 0.0110088 0)
(-0.013726 0.0178383 0)
(-0.0250107 0.0224559 0)
(-0.037561 0.024496 0)
(-0.0501874 0.0240097 0)
(-0.061791 0.0212808 0)
(-0.071431 0.0167155 0)
(-0.0783719 0.0107761 0)
(-0.0820966 0.00395274 0)
(-0.0823149 -0.0032407 0)
(-0.0789737 -0.0102608 0)
(-0.0722717 -0.0165317 0)
(-0.0626746 -0.0214561 0)
(-0.0509234 -0.0244516 0)
(-0.0380219 -0.0250194 0)
(-0.0251736 -0.0228503 0)
(-0.0136788 -0.01796 0)
(-0.0050125 -0.0108713 0)
(-0.000795114 -0.00299811 0)
(-0.00115962 0.00622326 0)
(-0.0068039 0.0188535 0)
(-0.0178664 0.0291351 0)
(-0.0320445 0.035804 0)
(-0.0475214 0.0385155 0)
(-0.0628761 0.037429 0)
(-0.0768473 0.033 0)
(-0.0883826 0.0258439 0)
(-0.0966727 0.0166496 0)
(-0.101152 0.00614198 0)
(-0.101496 -0.00492184 0)
(-0.097632 -0.0157422 0)
(-0.0897533 -0.0254696 0)
(-0.0783457 -0.0332176 0)
(-0.064211 -0.0381113 0)
(-0.0484742 -0.0393831 0)
(-0.0325338 -0.0365201 0)
(-0.0179733 -0.0294445 0)
(-0.00673035 -0.0187294 0)
(-0.00110806 -0.00597163 0)
(-0.001471 0.0101421 0)
(-0.0085019 0.0287478 0)
(-0.0220837 0.0431228 0)
(-0.0392237 0.0520554 0)
(-0.0576593 0.0553441 0)
(-0.0757248 0.0533591 0)
(-0.0920094 0.0468044 0)
(-0.105377 0.0365558 0)
(-0.114978 0.0235583 0)
(-0.120222 0.00878617 0)
(-0.120763 -0.00675461 0)
(-0.116498 -0.0220032 0)
(-0.10759 -0.0358241 0)
(-0.0945035 -0.0470127 0)
(-0.0780584 -0.0543499 0)
(-0.059468 -0.056721 0)
(-0.0403204 -0.0533058 0)
(-0.0225158 -0.0438141 0)
(-0.00852781 -0.028754 0)
(-0.00142584 -0.00983652 0)
(-0.00180337 0.0149588 0)
(-0.0103065 0.0407775 0)
(-0.0265419 0.0599106 0)
(-0.046757 0.0712988 0)
(-0.0682001 0.0750235 0)
(-0.0889554 0.071794 0)
(-0.107484 0.0626607 0)
(-0.122604 0.0488206 0)
(-0.133463 0.0315036 0)
(-0.139481 0.0119365 0)
(-0.140301 -0.00863688 0)
(-0.135786 -0.0289088 0)
(-0.126035 -0.0474617 0)
(-0.111446 -0.0627536 0)
(-0.0928001 -0.0731659 0)
(-0.0713498 -0.0771385 0)
(-0.0488527 -0.0734055 0)
(-0.02755 -0.0613045 0)
(-0.010538 -0.0411351 0)
(-0.00178467 -0.0146635 0)
(-0.00218094 0.0207537 0)
(-0.0123021 0.0550968 0)
(-0.0313775 0.0796447 0)
(-0.054781 0.0936147 0)
(-0.0792235 0.0975481 0)
(-0.10255 0.0926573 0)
(-0.123137 0.0804589 0)
(-0.139817 0.0625414 0)
(-0.151796 0.0404435 0)
(-0.158547 0.0156335 0)
(-0.15973 -0.01044 0)
(-0.155167 -0.0362613 0)
(-0.144861 -0.0601585 0)
(-0.129082 -0.0802503 0)
(-0.10849 -0.094467 0)
(-0.0842967 -0.100689 0)
(-0.0583713 -0.0970252 0)
(-0.0332963 -0.0822236 0)
(-0.01289 -0.0561717 0)
(-0.00221985 -0.0205988 0)
(-0.00262756 0.0276529 0)
(-0.0145654 0.0719162 0)
(-0.0366899 0.102479 0)
(-0.0633334 0.119022 0)
(-0.090618 0.122791 0)
(-0.116188 0.115716 0)
(-0.13842 0.0999263 0)
(-0.156256 0.0774795 0)
(-0.169048 0.0502371 0)
(-0.176391 0.019877 0)
(-0.177999 -0.0120086 0)
(-0.173657 -0.0437676 0)
(-0.163241 -0.0735363 0)
(-0.146811 -0.0991218 0)
(-0.124796 -0.11797 0)
(-0.0982328 -0.127276 0)
(-0.068986 -0.124306 0)
(-0.0399311 -0.106912 0)
(-0.0157089 -0.0742598 0)
(-0.0027688 -0.0278613 0)
(-0.00317399 0.0358283 0)
(-0.0171818 0.0914847 0)
(-0.0425509 0.128522 0)
(-0.0723383 0.147389 0)
(-0.102036 0.15039 0)
(-0.129178 0.140457 0)
(-0.152282 0.120512 0)
(-0.170541 0.0931568 0)
(-0.18358 0.0605717 0)
(-0.191208 0.0245836 0)
(-0.193251 -0.0131678 0)
(-0.189474 -0.0510077 0)
(-0.179592 -0.0869894 0)
(-0.163372 -0.118685 0)
(-0.14086 -0.143058 0)
(-0.112725 -0.156513 0)
(-0.0806195 -0.155201 0)
(-0.0475749 -0.135666 0)
(-0.0191273 -0.0958662 0)
(-0.00347865 -0.0367441 0)
(-0.00387171 0.0455132 0)
(-0.0202756 0.114078 0)
(-0.0490237 0.157767 0)
(-0.0815869 0.178309 0)
(-0.112827 0.179597 0)
(-0.140354 0.16594 0)
(-0.163043 0.141255 0)
(-0.180544 0.108747 0)
(-0.192913 0.0708824 0)
(-0.200288 0.029536 0)
(-0.202682 -0.0137423 0)
(-0.199876 -0.057415 0)
(-0.191401 -0.0996185 0)
(-0.176649 -0.137834 0)
(-0.155115 -0.16862 0)
(-0.126835 -0.187521 0)
(-0.0929219 -0.189292 0)
(-0.0562759 -0.168616 0)
(-0.0233058 -0.121494 0)
(-0.00441977 -0.0476303 0)
(-0.004818 0.0570471 0)
(-0.0240592 0.139991 0)
(-0.0561796 0.189987 0)
(-0.0906836 0.210931 0)
(-0.121923 0.209089 0)
(-0.147914 0.190621 0)
(-0.168228 0.160639 0)
(-0.18323 0.122972 0)
(-0.193586 0.0802751 0)
(-0.199888 0.0343277 0)
(-0.202413 -0.0135894 0)
(-0.201004 -0.0622799 0)
(-0.195028 -0.110189 0)
(-0.183444 -0.154935 0)
(-0.165036 -0.192858 0)
(-0.138893 -0.218686 0)
(-0.105122 -0.225533 0)
(-0.0659655 -0.205545 0)
(-0.0284634 -0.151633 0)
(-0.00570998 -0.0610335 0)
(-0.00620129 0.0709719 0)
(-0.0289003 0.169531 0)
(-0.0640741 0.224554 0)
(-0.0988897 0.243688 0)
(-0.127578 0.236702 0)
(-0.149146 0.21215 0)
(-0.164318 0.176469 0)
(-0.174467 0.134022 0)
(-0.181035 0.087479 0)
(-0.185149 0.0383225 0)
(-0.187412 -0.0126436 0)
(-0.187791 -0.0647909 0)
(-0.185545 -0.117139 0)
(-0.179223 -0.167764 0)
(-0.166808 -0.213122 0)
(-0.146146 -0.247363 0)
(-0.115745 -0.261885 0)
(-0.0763393 -0.245578 0)
(-0.0349094 -0.186658 0)
(-0.00755623 -0.0776795 0)
(-0.00837505 0.088207 0)
(-0.0353856 0.202933 0)
(-0.0725801 0.260092 0)
(-0.104714 0.27389 0)
(-0.126854 0.259121 0)
(-0.139927 0.2272 0)
(-0.146366 0.185813 0)
(-0.148793 0.139576 0)
(-0.149484 0.0908781 0)
(-0.150091 0.0406574 0)
(-0.15154 -0.0109639 0)
(-0.153971 -0.0641291 0)
(-0.156653 -0.118695 0)
(-0.157875 -0.173567 0)
(-0.154906 -0.225819 0)
(-0.144205 -0.269575 0)
(-0.122082 -0.294811 0)
(-0.0865464 -0.28666 0)
(-0.0430337 -0.226603 0)
(-0.0103157 -0.0986425 0)
(-0.0119379 0.110303 0)
(-0.0442476 0.240061 0)
(-0.0807907 0.293807 0)
(-0.104935 0.297127 0)
(-0.114592 0.271557 0)
(-0.11389 0.231428 0)
(-0.107449 0.18515 0)
(-0.0991556 0.137016 0)
(-0.0919379 0.0887031 0)
(-0.087772 0.0403431 0)
(-0.0877845 -0.00876364 0)
(-0.0923032 -0.0596369 0)
(-0.100779 -0.113138 0)
(-0.111564 -0.169347 0)
(-0.121601 -0.226581 0)
(-0.126203 -0.279857 0)
(-0.119174 -0.318695 0)
(-0.0944015 -0.324711 0)
(-0.0530723 -0.270597 0)
(-0.0145287 -0.125497 0)
(-0.0176312 0.13983 0)
(-0.0556331 0.279529 0)
(-0.0852472 0.320216 0)
(-0.0924418 0.306481 0)
(-0.0815471 0.267617 0)
(-0.0611485 0.219808 0)
(-0.0380012 0.170918 0)
(-0.0167401 0.123989 0)
(-0.000363218 0.0794755 0)
(0.00929638 0.0365198 0)
(0.0111911 -0.00638882 0)
(0.00486535 -0.0510557 0)
(-0.00950856 -0.0992986 0)
(-0.0308332 -0.152526 0)
(-0.0565053 -0.21088 0)
(-0.081596 -0.271498 0)
(-0.0979637 -0.325328 0)
(-0.0944845 -0.352317 0)
(-0.0640566 -0.315691 0)
(-0.0206682 -0.160534 0)
(-0.0253141 0.181242 0)
(-0.0662623 0.316433 0)
(-0.0753959 0.328572 0)
(-0.0519109 0.291398 0)
(-0.0114083 0.239511 0)
(0.0332782 0.187531 0)
(0.0746936 0.140581 0)
(0.108839 0.0993526 0)
(0.133707 0.0627157 0)
(0.148312 0.0288763 0)
(0.152089 -0.0042167 0)
(0.144599 -0.0387812 0)
(0.125499 -0.0772062 0)
(0.0948053 -0.121979 0)
(0.0535893 -0.175249 0)
(0.00528963 -0.237407 0)
(-0.0422037 -0.303568 0)
(-0.0740679 -0.356658 0)
(-0.0706102 -0.354399 0)
(-0.027753 -0.207299 0)
(-0.0290159 0.238674 0)
(-0.060601 0.335557 0)
(-0.0233889 0.299219 0)
(0.0476689 0.237927 0)
(0.123036 0.180257 0)
(0.190607 0.132577 0)
(0.246112 0.0948 0)
(0.288441 0.0647497 0)
(0.317822 0.0399594 0)
(0.334776 0.0182068 0)
(0.339557 -0.00251393 0)
(0.33192 -0.0241897 0)
(0.31104 -0.0490443 0)
(0.275593 -0.0798166 0)
(0.224208 -0.11994 0)
(0.156654 -0.173122 0)
(0.0761474 -0.241111 0)
(-0.00525777 -0.317423 0)
(-0.0545995 -0.367775 0)
(-0.027788 -0.266606 0)
(0.00963641 0.280978 0)
(0.0211401 0.294704 0)
(0.138222 0.210444 0)
(0.262738 0.142616 0)
(0.361565 0.0961445 0)
(0.436202 0.0646978 0)
(0.491217 0.0432488 0)
(0.530162 0.0280996 0)
(0.55585 0.0166954 0)
(0.570207 0.00730707 0)
(0.5742 -0.00134207 0)
(0.56785 -0.0103932 0)
(0.550168 -0.0211526 0)
(0.518992 -0.0354728 0)
(0.470828 -0.0563092 0)
(0.400849 -0.0884194 0)
(0.302582 -0.138835 0)
(0.171862 -0.215624 0)
(0.0423132 -0.310974 0)
(0.0200648 -0.298797 0)
(0.301033 0.145533 0)
(0.397878 0.127085 0)
(0.557498 0.0758599 0)
(0.674119 0.0435433 0)
(0.743039 0.0254013 0)
(0.785683 0.0150811 0)
(0.813408 0.00907263 0)
(0.831371 0.00540585 0)
(0.842439 0.00297175 0)
(0.848238 0.00114755 0)
(0.84953 -0.000449706 0)
(0.846418 -0.00212127 0)
(0.838356 -0.00421321 0)
(0.823929 -0.00728045 0)
(0.800372 -0.0123788 0)
(0.762441 -0.0216072 0)
(0.698357 -0.0390848 0)
(0.583646 -0.0723565 0)
(0.417273 -0.127298 0)
(0.310288 -0.148821 0)
)
;

boundaryField
{
    movingWall
    {
        type            fixedValue;
        value           uniform (1 0 0);
    }
    fixedWalls
    {
        type            noSlip;
    }
    frontAndBack
    {
        type            empty;
    }
}


// ************************************************************************* //
