/*--------------------------------*- C++ -*----------------------------------*\
  =========                 |
  \\      /  F ield         | OpenFOAM: The Open Source CFD Toolbox
   \\    /   O peration     | Website:  https://openfoam.org
    \\  /    A nd           | Version:  6
     \\/     M anipulation  |
\*---------------------------------------------------------------------------*/
FoamFile
{
    version     2.0;
    format      ascii;
    class       volScalarField;
    location    "0.03";
    object      p;
}
// * * * * * * * * * * * * * * * * * * * * * * * * * * * * * * * * * * * * * //

dimensions      [0 2 -2 0 0 0 0];

internalField   nonuniform List<scalar> 
400
(
1.01506e-08
-0.00156134
-0.00276603
-0.00286331
-0.0016409
0.0008953
0.00461553
0.00932123
0.0147779
0.0207276
0.0268935
0.032982
0.0386876
0.0437009
0.0477243
0.0504998
0.0518602
0.051798
0.0505614
0.0489582
0.00154055
-6.81284e-05
-0.000941606
-0.000763513
0.000511579
0.00289719
0.00631457
0.0106112
0.0155897
0.0210209
0.0266515
0.032211
0.0374197
0.042001
0.0456993
0.0483076
0.0497123
0.0499248
0.0490225
0.0473726
0.00282989
0.000702434
-0.000265952
-4.27536e-05
0.00123814
0.00356596
0.00687025
0.0110125
0.0158109
0.0210509
0.0264912
0.0318716
0.0369222
0.0413764
0.044988
0.0475571
0.0489732
0.0492215
0.0482035
0.0460148
0.00318243
0.000441337
-0.00079065
-0.000627135
0.000659476
0.00302371
0.00638318
0.0105944
0.0154757
0.0208143
0.0263699
0.0318804
0.0370711
0.0416662
0.0454047
0.0480657
0.0495142
0.049696
0.0483821
0.0455458
0.00233087
-0.000997242
-0.00251436
-0.00241374
-0.00107408
0.00142688
0.00498887
0.00945499
0.0146353
0.0203105
0.026233
0.0321302
0.0377112
0.0426775
0.0467371
0.0496312
0.0511862
0.0513065
0.0496652
0.0461881
0.000104811
-0.00382826
-0.0056383
-0.0055704
-0.00409972
-0.00133736
0.00259311
0.00751467
0.0132222
0.0194837
0.0260378
0.0325943
0.0388372
0.0444327
0.0490418
0.0523494
0.0541272
0.0542296
0.0522381
0.0480658
-0.00365769
-0.00828587
-0.0104087
-0.0103236
-0.00861697
-0.00544168
-0.000952599
0.00464591
0.0111279
0.0182445
0.0257171
0.0332334
0.0404454
0.0469728
0.0524126
0.0563705
0.0585385
0.0586988
0.0563167
0.0512986
-0.00916997
-0.0146577
-0.0171266
-0.0169524
-0.0148734
-0.0111026
-0.00583771
0.000681574
0.00820435
0.0164636
0.0251637
0.0339705
0.0425018
0.0503221
0.0569464
0.0618717
0.0646727
0.0650163
0.0621872
0.0560633
-0.016748
-0.0233389
-0.0261942
-0.0258241
-0.0231924
-0.0186017
-0.0123091
-0.00459859
0.00425171
0.0139593
0.0242178
0.0346781
0.0449286
0.0544768
0.062739
0.0690671
0.0728635
0.0736052
0.0702736
0.0626535
-0.0268652
-0.0348903
-0.0381591
-0.0374218
-0.0339866
-0.0282911
-0.0206723
-0.011468
-0.00098318
0.0104922
0.0226544
0.0351569
0.0475763
0.059373
0.0698565
0.0781943
0.0835406
0.0850628
0.081221
0.0715612
-0.0402403
-0.0501194
-0.0537677
-0.0523698
-0.0477652
-0.040588
-0.0312795
-0.0202393
-0.0077949
0.00577039
0.0201789
0.0351184
0.0501898
0.06484
0.0782854
0.0894784
0.0972332
0.100225
0.0960243
0.0836292
-0.0580013
-0.0702094
-0.0740363
-0.0714574
-0.0651253
-0.0559482
-0.0444921
-0.031222
-0.0164779
-0.000514577
0.0164508
0.0341886
0.0523874
0.070552
0.0878637
0.103068
0.11455
0.120242
0.116229
0.100349
-0.0819978
-0.0969238
-0.100334
-0.0956386
-0.0867046
-0.074789
-0.0605877
-0.0446222
-0.0272249
-0.00859118
0.0111677
0.0319712
0.0536898
0.0760098
0.0982148
0.118941
0.136122
0.146647
0.144238
0.124428
-0.115411
-0.132924
-0.13444
-0.125947
-0.113025
-0.0972989
-0.0795555
-0.0603351
-0.039923
-0.0184099
0.00425542
0.0282216
0.0536616
0.0806251
0.108746
0.136823
0.162497
0.181399
0.183761
0.160853
-0.163944
-0.182208
-0.178439
-0.163163
-0.14408
-0.123014
-0.100697
-0.0775825
-0.0538244
-0.0293345
-0.00382869
0.023155
0.0522191
0.0839922
0.11882
0.156188
0.194
0.226806
0.240375
0.218731
-0.237915
-0.250505
-0.234189
-0.207029
-0.178535
-0.150101
-0.122037
-0.0944578
-0.0671937
-0.0398474
-0.0118087
0.0177747
0.050035
0.0863725
0.128253
0.176629
0.230797
0.285324
0.32182
0.313726
-0.356031
-0.345083
-0.302101
-0.255117
-0.212758
-0.174651
-0.139928
-0.107777
-0.0773276
-0.047654
-0.0177064
0.0138166
0.0486279
0.0890223
0.137951
0.198724
0.273637
0.359675
0.43831
0.471696
-0.559688
-0.47349
-0.376491
-0.299315
-0.238777
-0.189816
-0.148997
-0.113529
-0.081267
-0.0505421
-0.0198148
0.012641
0.0490802
0.0927174
0.148262
0.222258
0.321854
0.451106
0.605879
0.74656
-0.96107
-0.636545
-0.426356
-0.311759
-0.236816
-0.182606
-0.141191
-0.106982
-0.0764287
-0.0473443
-0.0180301
0.0133179
0.0491268
0.0931466
0.151588
0.234626
0.356872
0.540753
0.840224
1.26504
-1.67163
-0.786157
-0.392372
-0.25482
-0.187028
-0.143817
-0.112944
-0.0873718
-0.0634127
-0.039385
-0.0142327
0.0132205
0.0447783
0.0835884
0.135606
0.212593
0.337619
0.565968
1.07369
2.07249
)
;

boundaryField
{
    movingWall
    {
        type            zeroGradient;
    }
    fixedWalls
    {
        type            zeroGradient;
    }
    frontAndBack
    {
        type            empty;
    }
}


// ************************************************************************* //
