/*--------------------------------*- C++ -*----------------------------------*\
  =========                 |
  \\      /  F ield         | OpenFOAM: The Open Source CFD Toolbox
   \\    /   O peration     | Website:  https://openfoam.org
    \\  /    A nd           | Version:  6
     \\/     M anipulation  |
\*---------------------------------------------------------------------------*/
FoamFile
{
    version     2.0;
    format      ascii;
    class       volScalarField;
    location    "0.075";
    object      p;
}
// * * * * * * * * * * * * * * * * * * * * * * * * * * * * * * * * * * * * * //

dimensions      [0 2 -2 0 0 0 0];

internalField   nonuniform List<scalar> 
400
(
1.08796e-08
-0.000269978
-0.000388621
-0.000252335
0.000138444
0.000766697
0.0016095
0.00263922
0.00382342
0.00512366
0.00649458
0.00788377
0.00923245
0.010477
0.0115514
0.0123916
0.0129428
0.0131689
0.0130709
0.0127797
0.000269154
-9.63272e-06
-8.43924e-05
7.65465e-05
0.000456784
0.00105001
0.00184268
0.0028126
0.00393072
0.00516109
0.00646047
0.00777852
0.00905873
0.0102402
0.0112609
0.0120625
0.0126005
0.0128499
0.0127954
0.0124929
0.000395414
4.23642e-05
-4.51029e-05
0.000117662
0.000491266
0.00107032
0.00184484
0.00279549
0.00389568
0.00511134
0.00640054
0.00771362
0.00899401
0.0101801
0.0112083
0.0120187
0.0125657
0.0128225
0.0127499
0.0123616
0.000263492
-0.00016521
-0.000282076
-0.000124935
0.000249588
0.000834186
0.00161983
0.00258859
0.0037154
0.00496741
0.00630308
0.00767205
0.00901554
0.010268
0.0113599
0.012224
0.0128069
0.0130738
0.0129673
0.0124877
-0.000152764
-0.000646282
-0.000790513
-0.000635165
-0.000249067
0.000358927
0.00118045
0.00219867
0.0033898
0.00472182
0.00615311
0.00763163
0.00909482
0.0104705
0.0116795
0.0126423
0.0132929
0.0135854
0.0134483
0.0128817
-0.000873338
-0.00143212
-0.00160196
-0.00144162
-0.0010312
-0.000380941
0.000501542
0.00160064
0.00289393
0.00435036
0.00592818
0.00757328
0.00921809
0.0107814
0.0121704
0.0132873
0.0140472
0.0143881
0.0142223
0.0135561
-0.00192506
-0.00255962
-0.00275575
-0.00258294
-0.00213483
-0.00142338
-0.000455286
0.000755469
0.00218841
0.00381416
0.00559152
0.00746476
0.00936097
0.0111881
0.0128349
0.0141784
0.0151048
0.0155265
0.0153319
0.0145356
-0.00334668
-0.00407457
-0.00429957
-0.00410662
-0.00360756
-0.00281698
-0.00174031
-0.00038923
0.0012188
0.00305749
0.00508793
0.00725455
0.00948029
0.0116615
0.0136648
0.0153322
0.0165071
0.0170595
0.0168363
0.0158597
-0.00519293
-0.00603798
-0.00629574
-0.00607429
-0.00551103
-0.00462457
-0.00341877
-0.00190206
-8.7371e-05
0.00200427
0.00433921
0.00686572
0.00950635
0.0121482
0.0146331
0.016758
0.0183033
0.0190679
0.0188218
0.0175864
-0.00753827
-0.0085315
-0.00882585
-0.008565
-0.00792303
-0.00692475
-0.00557202
-0.00386896
-0.00182225
0.00055503
0.00323875
0.00618714
0.00933009
0.012553
0.0156761
0.0184426
0.0205437
0.0216608
0.0214178
0.0198006
-0.0104837
-0.0116649
-0.0119963
-0.0116785
-0.0109392
-0.0098124
-0.00829724
-0.00639255
-0.00409737
-0.00141417
0.00164737
0.00506398
0.00878592
0.0127135
0.0166602
0.0203173
0.0232597
0.0249799
0.0248227
0.022637
-0.0141699
-0.0155887
-0.0159467
-0.0155395
-0.0146747
-0.0133982
-0.0117051
-0.00958831
-0.00703893
-0.00404761
-0.000605529
0.00329207
0.00763396
0.0123644
0.0173278
0.0221934
0.026411
0.0291879
0.0293475
0.026349
-0.018805
-0.0205169
-0.0208619
-0.0203019
-0.0192641
-0.0178053
-0.015913
-0.013574
-0.0107738
-0.00749359
-0.00370602
0.000627917
0.00555456
0.0111032
0.0172197
0.0236457
0.0297715
0.0344263
0.0354961
0.0315121
-0.0247232
-0.0267662
-0.0269871
-0.0261511
-0.0248562
-0.0231583
-0.0210274
-0.0184451
-0.015397
-0.0118632
-0.00780661
-0.00315861
0.00219273
0.00840017
0.0156127
0.0238459
0.0326944
0.0406473
0.0440402
0.0394938
-0.0325149
-0.0348235
-0.0346361
-0.0332862
-0.0315876
-0.0295476
-0.0270984
-0.0242172
-0.0208996
-0.0171405
-0.0129132
-0.00814293
-0.00267348
0.00377317
0.0116346
0.0214968
0.0337439
0.0470249
0.055685
0.0529931
-0.0433208
-0.0454534
-0.0441527
-0.0418414
-0.0394893
-0.0369222
-0.0339979
-0.0306915
-0.0270214
-0.0230153
-0.0186824
-0.0139796
-0.00876052
-0.0026828
0.00497086
0.0155833
0.0310935
0.0516144
0.0703895
0.0760268
-0.0595411
-0.0598229
-0.0557519
-0.0516659
-0.0482182
-0.0447898
-0.0411178
-0.0371734
-0.0329993
-0.0286568
-0.0241949
-0.0196169
-0.0148198
-0.00945318
-0.00258818
0.00794871
0.0260741
0.0550908
0.0903
0.115724
-0.0870793
-0.0792268
-0.0687361
-0.0614366
-0.0561306
-0.0513881
-0.0467255
-0.0420345
-0.0373201
-0.0326287
-0.0280052
-0.0234485
-0.0188275
-0.0136766
-0.00671998
0.00506456
0.0275463
0.0683787
0.129655
0.19353
-0.143413
-0.102188
-0.0764858
-0.0645577
-0.0575836
-0.0520574
-0.0471066
-0.0423998
-0.0377801
-0.0332215
-0.0287352
-0.024267
-0.0195559
-0.0138299
-0.00513665
0.010927
0.0429215
0.104383
0.210378
0.351185
-0.268782
-0.118354
-0.0620819
-0.0499323
-0.0457713
-0.0424224
-0.03946
-0.0365503
-0.0333998
-0.029971
-0.026321
-0.0224123
-0.0179225
-0.0118778
-0.00186328
0.0176437
0.0583788
0.143512
0.307927
0.573651
)
;

boundaryField
{
    movingWall
    {
        type            zeroGradient;
    }
    fixedWalls
    {
        type            zeroGradient;
    }
    frontAndBack
    {
        type            empty;
    }
}


// ************************************************************************* //
