/*--------------------------------*- C++ -*----------------------------------*\
  =========                 |
  \\      /  F ield         | OpenFOAM: The Open Source CFD Toolbox
   \\    /   O peration     | Website:  https://openfoam.org
    \\  /    A nd           | Version:  6
     \\/     M anipulation  |
\*---------------------------------------------------------------------------*/
FoamFile
{
    version     2.0;
    format      ascii;
    class       volScalarField;
    location    "0.035";
    object      p;
}
// * * * * * * * * * * * * * * * * * * * * * * * * * * * * * * * * * * * * * //

dimensions      [0 2 -2 0 0 0 0];

internalField   nonuniform List<scalar> 
400
(
8.13597e-08
-0.00470463
-0.0101308
-0.0137696
-0.0142953
-0.0111805
-0.00446504
0.00541804
0.0177758
0.031742
0.0463368
0.0605177
0.0732346
0.0835038
0.0905069
0.0937244
0.0931063
0.0892606
0.0836572
0.0789165
0.0046419
-0.000203515
-0.00441992
-0.00676574
-0.00662272
-0.00360953
0.00227515
0.0107153
0.0211727
0.0329516
0.0452496
0.0572071
0.0679634
0.0767248
0.0828484
0.0859452
0.0860065
0.0834776
0.079102
0.0742333
0.0104048
0.00370565
-0.000901832
-0.00304266
-0.00276932
0.000111909
0.00555565
0.0132629
0.0227586
0.0334351
0.0445883
0.0554583
0.0652791
0.0733381
0.0790458
0.0820198
0.0821963
0.0798312
0.0750105
0.0682555
0.0152305
0.00599695
0.000185644
-0.00235756
-0.00223827
0.0005613
0.00591143
0.0134725
0.0227709
0.0332258
0.0441698
0.0548773
0.0646043
0.0726387
0.0783592
0.0813107
0.0813252
0.0784828
0.072345
0.0629626
0.0178991
0.00594101
-0.00133697
-0.00446008
-0.00451479
-0.0016425
0.00393203
0.011804
0.0214705
0.0323449
0.0437612
0.0549905
0.0652681
0.0738349
0.0799866
0.0831496
0.0830226
0.0795187
0.0717468
0.0594633
0.0175201
0.0026628
-0.00621005
-0.00992669
-0.0100334
-0.00682711
-0.000637866
0.00804592
0.0186704
0.0306202
0.0432067
0.0556701
0.067193
0.0769301
0.0840498
0.087813
0.0877485
0.0835877
0.0739953
0.058513
0.0132677
-0.00475729
-0.0153033
-0.0195081
-0.019418
-0.0155042
-0.00821988
0.00184467
0.0140692
0.027796
0.042301
0.0567777
0.0703344
0.082008
0.090795
0.0957354
0.0961314
0.0914816
0.0799352
0.0608154
0.00418005
-0.0173842
-0.0296313
-0.0340867
-0.0334058
-0.0282811
-0.019319
-0.00723021
0.00728976
0.0235396
0.0407616
0.0581031
0.0745913
0.0891243
0.100484
0.107422
0.108929
0.104169
0.0906082
0.0672611
-0.0110113
-0.0365715
-0.0504615
-0.0547513
-0.0528955
-0.0458906
-0.0345387
-0.0196915
-0.00211951
0.017446
0.0382344
0.0593691
0.079811
0.098316
0.113416
0.123495
0.12711
0.122927
0.107437
0.0791515
-0.0340466
-0.0641032
-0.0794012
-0.0828276
-0.0789336
-0.0691462
-0.0545216
-0.0360704
-0.0146254
0.00908534
0.0343244
0.0602422
0.0857798
0.109577
0.129901
0.144686
0.151903
0.149463
0.132425
0.0984427
-0.0673492
-0.102372
-0.118488
-0.119879
-0.112648
-0.0988362
-0.0798221
-0.0567844
-0.0305849
-0.00188817
0.0286791
0.0603841
0.0922395
0.122846
0.150232
0.171826
0.18483
0.186053
0.168417
0.128073
-0.114373
-0.154642
-0.170292
-0.16766
-0.155108
-0.135529
-0.11069
-0.0819198
-0.0500399
-0.0155541
0.0211403
0.0595637
0.0989523
0.138017
0.17466
0.205811
0.227745
0.235716
0.219469
0.172485
-0.180268
-0.225469
-0.238002
-0.227978
-0.207054
-0.179253
-0.146744
-0.11092
-0.0724336
-0.0314744
0.0119569
0.0578247
0.10581
0.154983
0.203368
0.247552
0.282826
0.302406
0.291412
0.238552
-0.273308
-0.321392
-0.325445
-0.302336
-0.268411
-0.228993
-0.186512
-0.142199
-0.0962892
-0.0484297
0.00199932
0.0556472
0.11293
0.173644
0.236372
0.297788
0.352432
0.391167
0.392725
0.337401
-0.407932
-0.451988
-0.436732
-0.391086
-0.337389
-0.281931
-0.226867
-0.172748
-0.118961
-0.0642712
-0.00716281
0.053968
0.120603
0.193737
0.273178
0.356556
0.43851
0.507929
0.535728
0.487956
-0.61029
-0.630893
-0.575189
-0.492032
-0.409312
-0.332661
-0.262622
-0.198033
-0.136721
-0.0761181
-0.0135139
0.053899
0.12898
0.214431
0.312198
0.422327
0.541471
0.658498
0.737347
0.7225
-0.928448
-0.875941
-0.741462
-0.599319
-0.476189
-0.373288
-0.287043
-0.212747
-0.145609
-0.0812031
-0.0153776
0.0560262
0.137449
0.233774
0.350184
0.491312
0.659032
0.846572
1.01884
1.09595
-1.47193
-1.20932
-0.924118
-0.696565
-0.523041
-0.391985
-0.291763
-0.211462
-0.142443
-0.0780711
-0.0127723
0.0588183
0.142633
0.245966
0.378331
0.551699
0.777843
1.06415
1.4082
1.7273
-2.53326
-1.64337
-1.05295
-0.719954
-0.505461
-0.360508
-0.259993
-0.18505
-0.123202
-0.0663574
-0.00845697
0.0560979
0.133722
0.233178
0.367975
0.559063
0.834872
1.24441
1.92502
2.91653
-4.35361
-2.05495
-0.984208
-0.576443
-0.372904
-0.254281
-0.181024
-0.129878
-0.0879164
-0.0481736
-0.00610386
0.0423143
0.101906
0.18006
0.2902
0.45788
0.730707
1.23544
2.42087
4.83389
)
;

boundaryField
{
    movingWall
    {
        type            zeroGradient;
    }
    fixedWalls
    {
        type            zeroGradient;
    }
    frontAndBack
    {
        type            empty;
    }
}


// ************************************************************************* //
