/*--------------------------------*- C++ -*----------------------------------*\
  =========                 |
  \\      /  F ield         | OpenFOAM: The Open Source CFD Toolbox
   \\    /   O peration     | Website:  https://openfoam.org
    \\  /    A nd           | Version:  6
     \\/     M anipulation  |
\*---------------------------------------------------------------------------*/
FoamFile
{
    version     2.0;
    format      ascii;
    class       surfaceScalarField;
    location    "0.035";
    object      phi;
}
// * * * * * * * * * * * * * * * * * * * * * * * * * * * * * * * * * * * * * //

dimensions      [0 3 -1 0 0 0 0];

internalField   nonuniform List<scalar> 
760
(
9.21916e-09
-9.21953e-09
-2.47326e-08
3.39517e-08
-1.03281e-07
7.85478e-08
-2.11645e-07
1.08364e-07
-3.33471e-07
1.21826e-07
-4.53965e-07
1.20493e-07
-5.60879e-07
1.06914e-07
-6.4476e-07
8.38816e-08
-6.98824e-07
5.40635e-08
-7.18779e-07
1.99553e-08
-7.02775e-07
-1.60038e-08
-6.51512e-07
-5.12628e-08
-5.68501e-07
-8.30112e-08
-4.60389e-07
-1.08112e-07
-3.37211e-07
-1.23179e-07
-2.12339e-07
-1.24872e-07
-1.01822e-07
-1.10518e-07
-2.28104e-08
-7.90118e-08
1.01629e-08
-3.29733e-08
1.0163e-08
-3.19216e-08
2.27022e-08
-1.56434e-07
1.58464e-07
-3.66053e-07
2.88169e-07
-6.33974e-07
3.76286e-07
-9.27711e-07
4.15563e-07
-1.21569e-06
4.08469e-07
-1.47044e-06
3.61669e-07
-1.67002e-06
2.83454e-07
-1.79833e-06
1.82374e-07
-1.8452e-06
6.68309e-08
-1.80642e-06
-5.47823e-08
-1.68398e-06
-1.73704e-07
-1.48652e-06
-2.80468e-07
-1.22981e-06
-3.64824e-07
-9.36841e-07
-4.1615e-07
-6.37144e-07
-4.24569e-07
-3.64649e-07
-3.83012e-07
-1.53432e-07
-2.90229e-07
-3.01605e-08
-1.56244e-07
-1.99972e-08
-7.81929e-08
1.00895e-07
-2.97002e-07
3.77272e-07
-6.28625e-07
6.19792e-07
-1.03331e-06
7.8097e-07
-1.46684e-06
8.49094e-07
-1.88663e-06
8.28262e-07
-2.25545e-06
7.30483e-07
-2.54326e-06
5.71263e-07
-2.72794e-06
3.67057e-07
-2.79545e-06
1.34347e-07
-2.73998e-06
-1.10252e-07
-2.56427e-06
-3.49413e-07
-2.2802e-06
-5.64546e-07
-1.90928e-06
-7.3574e-07
-1.48278e-06
-8.42648e-07
-1.04066e-06
-8.66694e-07
-6.28767e-07
-7.94903e-07
-2.93827e-07
-6.25169e-07
-7.59165e-08
-3.74154e-07
-9.59135e-08
-1.19578e-07
2.20473e-07
-4.29952e-07
6.87647e-07
-8.79951e-07
1.06979e-06
-1.41366e-06
1.31468e-06
-1.97485e-06
1.41029e-06
-2.51164e-06
1.36504e-06
-2.97955e-06
1.19839e-06
-3.3431e-06
9.34813e-07
-3.57625e-06
6.0021e-07
-3.66242e-06
2.20523e-07
-3.59456e-06
-1.78117e-07
-3.37549e-06
-5.6848e-07
-3.0187e-06
-9.21334e-07
-2.54913e-06
-1.20531e-06
-2.00356e-06
-1.38821e-06
-1.42991e-06
-1.44034e-06
-8.84632e-07
-1.34018e-06
-4.27906e-07
-1.08189e-06
-1.17004e-07
-6.85056e-07
-2.12918e-07
-1.58254e-07
3.78728e-07
-5.59489e-07
1.08888e-06
-1.12875e-06
1.63905e-06
-1.79159e-06
1.97752e-06
-2.47842e-06
2.09712e-06
-3.12816e-06
2.01478e-06
-3.69023e-06
1.76047e-06
-4.12524e-06
1.36982e-06
-4.40462e-06
8.79594e-07
-4.51013e-06
3.26033e-07
-4.43357e-06
-2.54678e-07
-4.17717e-06
-8.24887e-07
-3.75459e-06
-1.34391e-06
-3.19237e-06
-1.76753e-06
-2.53116e-06
-2.04943e-06
-1.82587e-06
-2.14563e-06
-1.14401e-06
-2.02204e-06
-5.61486e-07
-1.66442e-06
-1.56077e-07
-1.09047e-06
-3.68995e-07
-1.97736e-07
5.76464e-07
-6.93932e-07
1.58508e-06
-1.38853e-06
2.33364e-06
-2.18618e-06
2.77517e-06
-3.00239e-06
2.91334e-06
-3.76657e-06
2.77896e-06
-4.42279e-06
2.41669e-06
-4.92895e-06
1.87598e-06
-5.25517e-06
1.20581e-06
-5.38227e-06
4.5314e-07
-5.30096e-06
-3.35993e-07
-5.01205e-06
-1.11379e-06
-4.52797e-06
-1.82799e-06
-3.87507e-06
-2.42043e-06
-3.09624e-06
-2.82825e-06
-2.25283e-06
-2.98905e-06
-1.42434e-06
-2.85053e-06
-7.05139e-07
-2.38362e-06
-1.97378e-07
-1.59823e-06
-5.66373e-07
-2.41409e-07
8.17872e-07
-8.419e-07
2.18557e-06
-1.67264e-06
3.16438e-06
-2.6143e-06
3.71683e-06
-3.56585e-06
3.86489e-06
-4.44716e-06
3.66027e-06
-5.19803e-06
3.16755e-06
-5.77526e-06
2.45321e-06
-6.14919e-06
1.57974e-06
-6.30067e-06
6.04622e-07
-6.2194e-06
-4.17262e-07
-5.90396e-06
-1.42923e-06
-5.36377e-06
-2.36819e-06
-4.62269e-06
-3.16151e-06
-3.72371e-06
-3.72723e-06
-2.73327e-06
-3.9795e-06
-1.74348e-06
-3.84032e-06
-8.70224e-07
-3.25687e-06
-2.45222e-07
-2.22323e-06
-8.11595e-07
-2.92335e-07
1.11021e-06
-1.01109e-06
2.90433e-06
-1.99199e-06
4.14528e-06
-3.08744e-06
4.81228e-06
-4.17841e-06
4.95586e-06
-5.17602e-06
4.65789e-06
-6.01793e-06
4.00946e-06
-6.66244e-06
3.09771e-06
-7.08239e-06
1.99969e-06
-7.26021e-06
7.82443e-07
-7.18501e-06
-4.92467e-07
-6.85222e-06
-1.76202e-06
-6.26609e-06
-2.95432e-06
-5.44481e-06
-3.98278e-06
-4.42785e-06
-4.74419e-06
-3.2839e-06
-5.12345e-06
-2.11703e-06
-5.0072e-06
-1.06754e-06
-4.30636e-06
-3.03798e-07
-2.98697e-06
-1.11539e-06
-3.53331e-07
1.46354e-06
-1.2079e-06
3.7589e-06
-2.3536e-06
5.29098e-06
-3.60904e-06
6.06772e-06
-4.8363e-06
6.18313e-06
-5.94011e-06
5.76169e-06
-6.85985e-06
4.9292e-06
-7.55947e-06
3.79733e-06
-8.01785e-06
2.45808e-06
-8.22137e-06
9.85964e-07
-8.15947e-06
-5.5437e-07
-7.82367e-06
-2.09781e-06
-7.21043e-06
-3.56756e-06
-6.32789e-06
-4.86532e-06
-5.20643e-06
-5.86565e-06
-3.91156e-06
-6.41832e-06
-2.5561e-06
-6.36265e-06
-1.30669e-06
-5.55577e-06
-3.77239e-07
-3.91643e-06
-1.49263e-06
-4.27375e-07
1.89091e-06
-1.43761e-06
4.76913e-06
-2.75966e-06
6.61302e-06
-4.17169e-06
7.47975e-06
-5.51768e-06
7.52912e-06
-6.70091e-06
6.94492e-06
-7.66901e-06
5.89729e-06
-8.39774e-06
4.52607e-06
-8.87704e-06
2.93737e-06
-9.10065e-06
1.20958e-06
-9.06e-06
-5.9502e-07
-8.7423e-06
-2.41552e-06
-8.13337e-06
-4.17649e-06
-7.22584e-06
-5.77286e-06
-6.03299e-06
-7.05849e-06
-4.60796e-06
-7.84336e-06
-3.06493e-06
-7.90567e-06
-1.59578e-06
-7.02493e-06
-4.69991e-07
-5.04221e-06
-1.96262e-06
-5.18466e-07
2.40938e-06
-1.70519e-06
5.95586e-06
-3.20653e-06
8.11436e-06
-4.75357e-06
9.02679e-06
-6.17653e-06
8.95208e-06
-7.38657e-06
8.15496e-06
-8.34951e-06
6.86023e-06
-9.06147e-06
5.23803e-06
-9.52987e-06
3.40576e-06
-9.76021e-06
1.43992e-06
-9.74833e-06
-6.06901e-07
-9.47743e-06
-2.68641e-06
-8.92034e-06
-4.73358e-06
-8.04806e-06
-6.64513e-06
-6.84651e-06
-8.26004e-06
-5.34251e-06
-9.34736e-06
-3.63747e-06
-9.61071e-06
-1.94114e-06
-8.72126e-06
-5.87538e-07
-6.39581e-06
-2.55016e-06
-6.33235e-07
3.04261e-06
-2.01649e-06
7.33911e-06
-3.68288e-06
9.78075e-06
-5.31264e-06
1.06565e-05
-6.73385e-06
1.03733e-05
-7.88146e-06
9.30257e-06
-8.75371e-06
7.73248e-06
-9.37765e-06
5.86198e-06
-9.78529e-06
3.81339e-06
-9.99855e-06
1.65318e-06
-1.00207e-05
-5.84755e-07
-9.83238e-06
-2.87473e-06
-9.39245e-06
-5.17351e-06
-8.64517e-06
-7.39241e-06
-7.53762e-06
-9.3676e-06
-6.05147e-06
-1.08335e-05
-4.2517e-06
-1.14105e-05
-2.34675e-06
-1.06262e-05
-7.37725e-07
-8.00483e-06
-3.28789e-06
-7.83829e-07
3.82644e-06
-2.37924e-06
8.93452e-06
-4.16467e-06
1.15662e-05
-5.7757e-06
1.22676e-05
-7.06345e-06
1.1661e-05
-8.0119e-06
1.0251e-05
-8.67001e-06
8.39059e-06
-9.1067e-06
6.29867e-06
-9.38445e-06
4.09114e-06
-9.54503e-06
1.81376e-06
-9.60194e-06
-5.27849e-07
-9.53614e-06
-2.94052e-06
-9.29448e-06
-5.41517e-06
-8.79292e-06
-7.89397e-06
-7.93022e-06
-1.02303e-05
-6.62108e-06
-1.21426e-05
-4.85892e-06
-1.31726e-05
-2.81192e-06
-1.26732e-05
-9.32957e-07
-9.8838e-06
-4.22084e-06
-9.9238e-07
4.81882e-06
-2.80102e-06
1.07432e-05
-4.60088e-06
1.3366e-05
-6.01549e-06
1.36822e-05
-6.96724e-06
1.26128e-05
-7.52513e-06
1.08089e-05
-7.8084e-06
8.67386e-06
-7.93514e-06
6.42541e-06
-7.99923e-06
4.15523e-06
-8.06175e-06
1.87628e-06
-8.14759e-06
-4.42012e-07
-8.24219e-06
-2.84592e-06
-8.28703e-06
-5.37034e-06
-8.17558e-06
-8.00541e-06
-7.75681e-06
-1.06491e-05
-6.85991e-06
-1.30395e-05
-5.36218e-06
-1.46704e-05
-3.32349e-06
-1.47119e-05
-1.193e-06
-1.20143e-05
-5.41384e-06
-1.29494e-06
6.11376e-06
-3.27372e-06
1.27219e-05
-4.87492e-06
1.49672e-05
-5.80234e-06
1.46096e-05
-6.13121e-06
1.29417e-05
-6.05791e-06
1.07356e-05
-5.78406e-06
8.40002e-06
-5.47272e-06
6.11408e-06
-5.23964e-06
3.92215e-06
-5.15722e-06
1.79386e-06
-5.25908e-06
-3.40143e-07
-5.53986e-06
-2.56514e-06
-5.9479e-06
-4.9623e-06
-6.37181e-06
-7.5815e-06
-6.62618e-06
-1.03947e-05
-6.45276e-06
-1.3213e-05
-5.57072e-06
-1.55524e-05
-3.83034e-06
-1.64523e-05
-1.54447e-06
-1.43002e-05
-6.95831e-06
-1.73081e-06
7.84457e-06
-3.71157e-06
1.47027e-05
-4.70739e-06
1.59631e-05
-4.70716e-06
1.46094e-05
-4.05195e-06
1.22865e-05
-3.09373e-06
9.77738e-06
-2.10264e-06
7.40893e-06
-1.25943e-06
5.27087e-06
-6.75807e-07
3.33853e-06
-4.17207e-07
1.53526e-06
-5.17837e-07
-2.39513e-07
-9.84934e-07
-2.09805e-06
-1.79068e-06
-4.15656e-06
-2.85007e-06
-6.52211e-06
-3.98514e-06
-9.25962e-06
-4.88604e-06
-1.23121e-05
-5.10525e-06
-1.53332e-05
-4.16797e-06
-1.73896e-05
-1.99906e-06
-1.64691e-05
-8.95737e-06
-2.27197e-06
1.01165e-05
-3.76084e-06
1.61916e-05
-3.4339e-06
1.56361e-05
-1.92426e-06
1.30997e-05
7.06749e-08
1.02915e-05
2.082e-06
7.76606e-06
3.83981e-06
5.65112e-06
5.2065e-06
3.90418e-06
6.11774e-06
2.42729e-06
6.54192e-06
1.11108e-06
6.45742e-06
-1.55012e-07
5.84435e-06
-1.48497e-06
4.69032e-06
-3.00253e-06
3.01428e-06
-4.84608e-06
9.16718e-07
-7.16206e-06
-1.33748e-06
-1.00579e-05
-3.21638e-06
-1.34543e-05
-3.86908e-06
-1.67369e-05
-2.46319e-06
-1.7875e-05
-1.14206e-05
-2.57575e-06
1.26923e-05
-2.29899e-06
1.59148e-05
4.50659e-07
1.28865e-05
4.00914e-06
9.54125e-06
7.45238e-06
6.84828e-06
1.03945e-05
4.8239e-06
1.27129e-05
3.33272e-06
1.44002e-05
2.2169e-06
1.54856e-05
1.34191e-06
1.59947e-05
6.01948e-07
1.59306e-05
-9.0929e-08
1.52659e-05
-8.2027e-07
1.3943e-05
-1.67959e-06
1.18865e-05
-2.7896e-06
9.04252e-06
-4.31804e-06
5.47193e-06
-6.4873e-06
1.54203e-06
-9.52441e-06
-1.73833e-06
-1.34565e-05
-2.48189e-06
-1.71314e-05
-1.39024e-05
-8.48041e-07
1.35403e-05
4.0165e-06
1.10503e-05
1.015e-05
6.75297e-06
1.55107e-05
4.18053e-06
1.97122e-05
2.64685e-06
2.28417e-05
1.69433e-06
2.5086e-05
1.08847e-06
2.66171e-05
6.85754e-07
2.75616e-05
3.97425e-07
2.79952e-05
1.68365e-07
2.79438e-05
-3.95058e-08
2.73824e-05
-2.58901e-07
2.623e-05
-5.27193e-07
2.43399e-05
-8.99509e-07
2.14925e-05
-1.47067e-06
1.74173e-05
-2.4121e-06
1.19247e-05
-4.0318e-06
5.34459e-06
-6.87636e-06
-2.24674e-07
-1.15621e-05
-1.41271e-05
1.35403e-05
2.45906e-05
3.13436e-05
3.55241e-05
3.8171e-05
3.98653e-05
4.09538e-05
4.16395e-05
4.20369e-05
4.22053e-05
4.21658e-05
4.19069e-05
4.13797e-05
4.04802e-05
3.90095e-05
3.65974e-05
3.25656e-05
2.56893e-05
1.41271e-05
)
;

boundaryField
{
    movingWall
    {
        type            calculated;
        value           uniform 0;
    }
    fixedWalls
    {
        type            calculated;
        value           uniform 0;
    }
    frontAndBack
    {
        type            empty;
        value           nonuniform 0();
    }
}


// ************************************************************************* //
