/*--------------------------------*- C++ -*----------------------------------*\
  =========                 |
  \\      /  F ield         | OpenFOAM: The Open Source CFD Toolbox
   \\    /   O peration     | Website:  https://openfoam.org
    \\  /    A nd           | Version:  6
     \\/     M anipulation  |
\*---------------------------------------------------------------------------*/
FoamFile
{
    version     2.0;
    format      ascii;
    class       volVectorField;
    location    "0.035";
    object      U;
}
// * * * * * * * * * * * * * * * * * * * * * * * * * * * * * * * * * * * * * //

dimensions      [0 1 -1 0 0 0 0];

internalField   nonuniform List<vector> 
400
(
(0.000179229 -0.000176734 0)
(1.93898e-05 0.000139448 0)
(-0.00113364 0.000505067 0)
(-0.00306339 0.000750259 0)
(-0.00542849 0.000862594 0)
(-0.0079082 0.000859685 0)
(-0.0102287 0.000764851 0)
(-0.0121719 0.000601075 0)
(-0.0135754 0.000388666 0)
(-0.0143288 0.000145538 0)
(-0.0143705 -0.000111317 0)
(-0.0136883 -0.000364095 0)
(-0.0123232 -0.000592683 0)
(-0.010376 -0.00077376 0)
(-0.00801356 -0.000880939 0)
(-0.00547219 -0.000886621 0)
(-0.00305141 -0.000766464 0)
(-0.00109443 -0.000506864 0)
(5.15477e-05 -0.000129444 0)
(0.0001899 0.00018545 0)
(-0.000109808 -4.36615e-05 0)
(-0.00146028 0.00149152 0)
(-0.0048742 0.00306709 0)
(-0.00980615 0.00414605 0)
(-0.0155763 0.00463854 0)
(-0.021532 0.00458415 0)
(-0.0270757 0.00406897 0)
(-0.0317084 0.00319375 0)
(-0.0350488 0.00205845 0)
(-0.0368343 0.000758735 0)
(-0.0369203 -0.000610942 0)
(-0.0352831 -0.00195191 0)
(-0.0320268 -0.00315644 0)
(-0.0273941 -0.00410605 0)
(-0.021774 -0.00467525 0)
(-0.0156989 -0.00474394 0)
(-0.00981436 -0.00422159 0)
(-0.00481754 -0.00308445 0)
(-0.00140376 -0.00145785 0)
(-8.92953e-05 7.90652e-05 0)
(-0.000470119 0.00105424 0)
(-0.00313399 0.00491078 0)
(-0.00876931 0.00847435 0)
(-0.0163723 0.0108902 0)
(-0.024972 0.0119531 0)
(-0.0336986 0.0117188 0)
(-0.0417479 0.0103646 0)
(-0.0484403 0.00811889 0)
(-0.0532521 0.0052218 0)
(-0.0558216 0.00191241 0)
(-0.0559493 -0.00156905 0)
(-0.0536024 -0.00497191 0)
(-0.0489242 -0.00802654 0)
(-0.0422469 -0.0104433 0)
(-0.0341004 -0.0119249 0)
(-0.0252068 -0.0121993 0)
(-0.0164353 -0.0110771 0)
(-0.00872054 -0.00853467 0)
(-0.00306479 -0.00485173 0)
(-0.000442152 -0.000977567 0)
(-0.000780389 0.0030421 0)
(-0.00469022 0.0102252 0)
(-0.0124983 0.0163284 0)
(-0.022662 0.0203329 0)
(-0.0338854 0.0219786 0)
(-0.0451006 0.0213732 0)
(-0.0553436 0.0188181 0)
(-0.0638086 0.0147031 0)
(-0.069879 0.00944425 0)
(-0.0731293 0.00346012 0)
(-0.0733225 -0.00282666 0)
(-0.0704136 -0.00897536 0)
(-0.0645618 -0.0145138 0)
(-0.0561476 -0.0189373 0)
(-0.0457892 -0.0217313 0)
(-0.0343428 -0.022427 0)
(-0.0228586 -0.0206959 0)
(-0.0124992 -0.0164774 0)
(-0.00462015 -0.0101541 0)
(-0.000745111 -0.00291398 0)
(-0.00105732 0.00582094 0)
(-0.00617715 0.0173349 0)
(-0.0161699 0.0265092 0)
(-0.0289126 0.0322901 0)
(-0.042742 0.0344599 0)
(-0.0563807 0.0332489 0)
(-0.0687202 0.0291335 0)
(-0.0788576 0.0227026 0)
(-0.0861153 0.0145757 0)
(-0.0900281 0.00537142 0)
(-0.0903318 -0.00428845 0)
(-0.0869635 -0.013756 0)
(-0.0800758 -0.0223349 0)
(-0.0700637 -0.0292756 0)
(-0.0575954 -0.033805 0)
(-0.043632 -0.0352041 0)
(-0.0293971 -0.0329401 0)
(-0.0163079 -0.0268388 0)
(-0.00613647 -0.0172965 0)
(-0.00101825 -0.00564016 0)
(-0.00133419 0.00936909 0)
(-0.00770842 0.0262775 0)
(-0.0199976 0.0391069 0)
(-0.0354474 0.0468573 0)
(-0.0519813 0.0494638 0)
(-0.0680938 0.0473741 0)
(-0.0825386 0.0413115 0)
(-0.0943384 0.0321122 0)
(-0.102781 0.0206267 0)
(-0.107383 0.00768573 0)
(-0.107861 -0.00588603 0)
(-0.104127 -0.019231 0)
(-0.0963029 -0.031419 0)
(-0.0847642 -0.0414308 0)
(-0.0701924 -0.0481877 0)
(-0.053628 -0.0506485 0)
(-0.0364682 -0.0479807 0)
(-0.0204222 -0.0397873 0)
(-0.00775504 -0.0263746 0)
(-0.0013006 -0.00915449 0)
(-0.00164242 0.0137372 0)
(-0.00940161 0.0371919 0)
(-0.024204 0.0543021 0)
(-0.0425744 0.0642044 0)
(-0.0619682 0.0671156 0)
(-0.0806375 0.0638222 0)
(-0.0972121 0.0553874 0)
(-0.11067 0.0429536 0)
(-0.120299 0.0276293 0)
(-0.125623 0.0104605 0)
(-0.126353 -0.00753621 0)
(-0.122367 -0.0253077 0)
(-0.113731 -0.0416946 0)
(-0.100757 -0.0553902 0)
(-0.084091 -0.0649589 0)
(-0.0648141 -0.0689453 0)
(-0.0444853 -0.0660878 0)
(-0.0251387 -0.0556177 0)
(-0.00962838 -0.0376192 0)
(-0.00163126 -0.0135446 0)
(-0.0020108 0.0190408 0)
(-0.0113652 0.0503153 0)
(-0.0289841 0.0723523 0)
(-0.0505303 0.0845367 0)
(-0.0729241 0.0875361 0)
(-0.0941745 0.0826345 0)
(-0.112822 0.0713523 0)
(-0.127852 0.0552067 0)
(-0.138602 0.0355885 0)
(-0.144646 0.0137496 0)
(-0.145709 -0.00913225 0)
(-0.141631 -0.0318443 0)
(-0.132389 -0.0530236 0)
(-0.118178 -0.0710725 0)
(-0.0995365 -0.0841491 0)
(-0.0775146 -0.0902736 0)
(-0.0537895 -0.0875856 0)
(-0.0307341 -0.0747368 0)
(-0.0119066 -0.0513985 0)
(-0.00204891 -0.018984 0)
(-0.0024678 0.0254543 0)
(-0.0136981 0.0659693 0)
(-0.0344895 0.0935592 0)
(-0.0594395 0.108037 0)
(-0.0848598 0.110764 0)
(-0.108542 0.103732 0)
(-0.129009 0.0890662 0)
(-0.145337 0.0687352 0)
(-0.156996 0.0444285 0)
(-0.16367 0.017575 0)
(-0.16513 -0.0105417 0)
(-0.161184 -0.0386155 0)
(-0.151686 -0.065136 0)
(-0.13664 -0.0882385 0)
(-0.116375 -0.105638 0)
(-0.0917924 -0.11471 0)
(-0.0645866 -0.112779 0)
(-0.0374392 -0.0976241 0)
(-0.0147363 -0.0682054 0)
(-0.00259484 -0.0257293 0)
(-0.00304773 0.0332085 0)
(-0.0165006 0.0845363 0)
(-0.0408244 0.118207 0)
(-0.0692784 0.134769 0)
(-0.0975001 0.136632 0)
(-0.123141 0.126785 0)
(-0.144832 0.108137 0)
(-0.161876 0.0831846 0)
(-0.173988 0.0539172 0)
(-0.181047 0.0218854 0)
(-0.182926 -0.0116108 0)
(-0.179408 -0.0452756 0)
(-0.170199 -0.0775503 0)
(-0.155028 -0.10637 0)
(-0.133877 -0.129006 0)
(-0.107316 -0.142075 0)
(-0.0768718 -0.141822 0)
(-0.0454176 -0.124749 0)
(-0.0182675 -0.0886293 0)
(-0.00331966 -0.0341228 0)
(-0.0038029 0.0426011 0)
(-0.0198978 0.106434 0)
(-0.0480494 0.146475 0)
(-0.0798307 0.164531 0)
(-0.110184 0.1646 0)
(-0.13679 0.151048 0)
(-0.158599 0.127771 0)
(-0.175328 0.0978641 0)
(-0.187089 0.0635808 0)
(-0.194066 0.0265032 0)
(-0.196297 -0.0121796 0)
(-0.193575 -0.0513301 0)
(-0.185435 -0.0894939 0)
(-0.171256 -0.124537 0)
(-0.150507 -0.153349 0)
(-0.123179 -0.171716 0)
(-0.0903218 -0.17452 0)
(-0.0547356 -0.156437 0)
(-0.02267 -0.113313 0)
(-0.00429599 -0.0446043 0)
(-0.00482695 0.0540323 0)
(-0.024081 0.132086 0)
(-0.0561827 0.1783 0)
(-0.0906102 0.196654 0)
(-0.121714 0.19353 0)
(-0.147529 0.175153 0)
(-0.167646 0.146615 0)
(-0.182451 0.111623 0)
(-0.192624 0.0726158 0)
(-0.198763 0.031067 0)
(-0.201149 -0.0121112 0)
(-0.199631 -0.0561283 0)
(-0.193584 -0.0998418 0)
(-0.181983 -0.141261 0)
(-0.163632 -0.177064 0)
(-0.13764 -0.202235 0)
(-0.104123 -0.210044 0)
(-0.065305 -0.192661 0)
(-0.0281578 -0.142884 0)
(-0.00564164 -0.0577461 0)
(-0.00629876 0.0680869 0)
(-0.0293704 0.161888 0)
(-0.0651673 0.21317 0)
(-0.100691 0.229703 0)
(-0.130086 0.221398 0)
(-0.152317 0.196887 0)
(-0.168072 0.162594 0)
(-0.178687 0.122758 0)
(-0.185568 0.0798287 0)
(-0.189809 0.034985 0)
(-0.19199 -0.0113325 0)
(-0.192068 -0.0588899 0)
(-0.18932 -0.107105 0)
(-0.182336 -0.154428 0)
(-0.169168 -0.197641 0)
(-0.147747 -0.231151 0)
(-0.116673 -0.246523 0)
(-0.0767545 -0.232703 0)
(-0.0350169 -0.177839 0)
(-0.00756047 -0.0743262 0)
(-0.00855601 0.085694 0)
(-0.0362792 0.196093 0)
(-0.0747069 0.249735 0)
(-0.108306 0.261023 0)
(-0.13198 0.244933 0)
(-0.146557 0.212978 0)
(-0.154371 0.172836 0)
(-0.15795 0.129002 0)
(-0.159477 0.0836525 0)
(-0.16053 0.0374319 0)
(-0.16198 -0.00987895 0)
(-0.163949 -0.058789 0)
(-0.165726 -0.109519 0)
(-0.165667 -0.161313 0)
(-0.16115 -0.21154 0)
(-0.148782 -0.254557 0)
(-0.125043 -0.280505 0)
(-0.0881142 -0.274596 0)
(-0.0435934 -0.218283 0)
(-0.0104028 -0.0954545 0)
(-0.0121769 0.108367 0)
(-0.0454488 0.234487 0)
(-0.0836919 0.285115 0)
(-0.109909 0.286127 0)
(-0.121792 0.259287 0)
(-0.123321 0.21904 0)
(-0.11896 0.173795 0)
(-0.11244 0.127731 0)
(-0.106545 0.082324 0)
(-0.103134 0.0374396 0)
(-0.103254 -0.00792743 0)
(-0.107202 -0.0551172 0)
(-0.114455 -0.105304 0)
(-0.12345 -0.158851 0)
(-0.131275 -0.214323 0)
(-0.133438 -0.26693 0)
(-0.123978 -0.306336 0)
(-0.0970315 -0.314243 0)
(-0.0540596 -0.263347 0)
(-0.014698 -0.122714 0)
(-0.0178821 0.138587 0)
(-0.0569377 0.275505 0)
(-0.0884722 0.313615 0)
(-0.0980802 0.297891 0)
(-0.0898543 0.25788 0)
(-0.072189 0.20989 0)
(-0.0516317 0.161784 0)
(-0.0326084 0.1165 0)
(-0.0179281 0.0743141 0)
(-0.00927261 0.0341412 0)
(-0.00759057 -0.00578374 0)
(-0.0133015 -0.047526 0)
(-0.026265 -0.0931511 0)
(-0.0454843 -0.144288 0)
(-0.0685222 -0.201263 0)
(-0.090675 -0.261354 0)
(-0.104071 -0.315619 0)
(-0.0978836 -0.34408 0)
(-0.0653645 -0.309989 0)
(-0.0209033 -0.158365 0)
(-0.0255178 0.18067 0)
(-0.0674125 0.313988 0)
(-0.0783788 0.324191 0)
(-0.0573106 0.285459 0)
(-0.0195838 0.232641 0)
(0.0221883 0.180465 0)
(0.0607987 0.134049 0)
(0.0924958 0.0939945 0)
(0.115489 0.0590272 0)
(0.128962 0.027177 0)
(0.132456 -0.00379689 0)
(0.125564 -0.0363016 0)
(0.107904 -0.0729017 0)
(0.0793836 -0.116236 0)
(0.0408971 -0.168574 0)
(-0.00434657 -0.230394 0)
(-0.0487295 -0.296878 0)
(-0.0777312 -0.351004 0)
(-0.072038 -0.350524 0)
(-0.0280162 -0.205878 0)
(-0.0291177 0.238605 0)
(-0.061355 0.334443 0)
(-0.0255925 0.296865 0)
(0.0433914 0.234542 0)
(0.116251 0.176245 0)
(0.181117 0.128413 0)
(0.233984 0.0909471 0)
(0.273995 0.0616022 0)
(0.3016 0.0378128 0)
(0.317477 0.0172424 0)
(0.321978 -0.00223255 0)
(0.314878 -0.0227132 0)
(0.295304 -0.0465261 0)
(0.261821 -0.076496 0)
(0.212891 -0.11612 0)
(0.148073 -0.169149 0)
(0.0703423 -0.23736 0)
(-0.0085083 -0.314299 0)
(-0.0558564 -0.365702 0)
(-0.0280155 -0.265933 0)
(0.00966024 0.281136 0)
(0.0209082 0.294454 0)
(0.137121 0.209614 0)
(0.2602 0.141296 0)
(0.357169 0.0945294 0)
(0.429749 0.0630091 0)
(0.482743 0.0416939 0)
(0.519918 0.0268475 0)
(0.544262 0.0158657 0)
(0.557824 0.00696716 0)
(0.561634 -0.00117588 0)
(0.555716 -0.00975182 0)
(0.539032 -0.0201081 0)
(0.509323 -0.03413 0)
(0.462963 -0.0547953 0)
(0.39496 -0.0868745 0)
(0.29867 -0.137407 0)
(0.16974 -0.214473 0)
(0.0415552 -0.310282 0)
(0.0199546 -0.298671 0)
(0.301125 0.145631 0)
(0.398023 0.127109 0)
(0.55739 0.0757472 0)
(0.67344 0.0433139 0)
(0.74156 0.0251029 0)
(0.783302 0.0147661 0)
(0.810148 0.00878682 0)
(0.827357 0.00518374 0)
(0.837876 0.0028354 0)
(0.843375 0.00110721 0)
(0.844636 -0.000394316 0)
(0.841755 -0.00197952 0)
(0.834152 -0.00400178 0)
(0.820365 -0.00702129 0)
(0.797565 -0.0120967 0)
(0.760435 -0.0213282 0)
(0.697125 -0.0388349 0)
(0.583084 -0.0721671 0)
(0.417178 -0.127212 0)
(0.310324 -0.148853 0)
)
;

boundaryField
{
    movingWall
    {
        type            fixedValue;
        value           uniform (1 0 0);
    }
    fixedWalls
    {
        type            noSlip;
    }
    frontAndBack
    {
        type            empty;
    }
}


// ************************************************************************* //
