/*--------------------------------*- C++ -*----------------------------------*\
  =========                 |
  \\      /  F ield         | OpenFOAM: The Open Source CFD Toolbox
   \\    /   O peration     | Website:  https://openfoam.org
    \\  /    A nd           | Version:  6
     \\/     M anipulation  |
\*---------------------------------------------------------------------------*/
FoamFile
{
    version     2.0;
    format      ascii;
    class       volVectorField;
    location    "0.05";
    object      U;
}
// * * * * * * * * * * * * * * * * * * * * * * * * * * * * * * * * * * * * * //

dimensions      [0 1 -1 0 0 0 0];

internalField   nonuniform List<vector> 
400
(
(0.000159853 -0.000157763 0)
(-2.7002e-05 0.000154864 0)
(-0.00117007 0.000501106 0)
(-0.00303866 0.000726166 0)
(-0.00529833 0.000824402 0)
(-0.0076486 0.000816135 0)
(-0.00983951 0.000724751 0)
(-0.0116747 0.000571541 0)
(-0.0130079 0.000374142 0)
(-0.0137372 0.000147477 0)
(-0.0138021 -9.42405e-05 0)
(-0.013184 -0.000335384 0)
(-0.011913 -0.000557186 0)
(-0.0100757 -0.000736803 0)
(-0.00782413 -0.000847584 0)
(-0.00538116 -0.000861199 0)
(-0.00303487 -0.000752363 0)
(-0.00112021 -0.00050624 0)
(1.77789e-05 -0.000141661 0)
(0.000175169 0.000170496 0)
(-0.000129599 5.02142e-06 0)
(-0.00148117 0.00150441 0)
(-0.0048032 0.00299155 0)
(-0.00953686 0.00398142 0)
(-0.0150221 0.0044122 0)
(-0.0206485 0.00433665 0)
(-0.0258691 0.00384252 0)
(-0.0302326 0.00302376 0)
(-0.0333941 0.00196829 0)
(-0.0351117 0.000757572 0)
(-0.0352449 -0.000527728 0)
(-0.0337578 -0.00180033 0)
(-0.0307307 -0.00296023 0)
(-0.0263745 -0.00389247 0)
(-0.0210439 -0.00447122 0)
(-0.0152386 -0.0045731 0)
(-0.00957712 -0.00410223 0)
(-0.00473714 -0.00302766 0)
(-0.00140523 -0.00146246 0)
(-0.000100937 4.47836e-05 0)
(-0.000476572 0.00110565 0)
(-0.00307971 0.00483861 0)
(-0.00850098 0.00819035 0)
(-0.015743 0.0104029 0)
(-0.0238734 0.0113296 0)
(-0.0320831 0.0110559 0)
(-0.0396381 0.00976363 0)
(-0.0459238 0.00766586 0)
(-0.0504664 0.0049749 0)
(-0.0529325 0.00189598 0)
(-0.0531281 -0.00136412 0)
(-0.0510041 -0.00458311 0)
(-0.0466705 -0.00751139 0)
(-0.0404153 -0.00986934 0)
(-0.0327202 -0.0113601 0)
(-0.024261 -0.0117039 0)
(-0.0158684 -0.0106982 0)
(-0.00844925 -0.00830167 0)
(-0.00298607 -0.00476896 0)
(-0.000436997 -0.000998976 0)
(-0.000769333 0.00305125 0)
(-0.00453856 0.00995666 0)
(-0.0119809 0.0156771 0)
(-0.0215936 0.0193361 0)
(-0.0321455 0.0207634 0)
(-0.0426509 0.0201124 0)
(-0.052234 0.0176895 0)
(-0.060168 0.013857 0)
(-0.0658949 0.00898232 0)
(-0.0690214 0.00342507 0)
(-0.0693142 -0.00245067 0)
(-0.0667065 -0.00825421 0)
(-0.0613149 -0.0135491 0)
(-0.0534647 -0.0178492 0)
(-0.0437142 -0.020641 0)
(-0.0328637 -0.0214425 0)
(-0.0219168 -0.0199025 0)
(-0.0120019 -0.0159321 0)
(-0.00444267 -0.00987935 0)
(-0.000718514 -0.0028727 0)
(-0.00102668 0.00573296 0)
(-0.00591358 0.016736 0)
(-0.0153654 0.025307 0)
(-0.0273432 0.0305781 0)
(-0.0402827 0.0324507 0)
(-0.0530137 0.031212 0)
(-0.0645346 0.0273386 0)
(-0.0740336 0.0213738 0)
(-0.0808969 0.0138622 0)
(-0.0846907 0.00533322 0)
(-0.0851493 -0.00367896 0)
(-0.0821786 -0.0126014 0)
(-0.0758778 -0.0207913 0)
(-0.0665742 -0.0275262 0)
(-0.0548656 -0.0320338 0)
(-0.0416488 -0.0335744 0)
(-0.0280966 -0.0315812 0)
(-0.0155898 -0.0258421 0)
(-0.00586002 -0.0167167 0)
(-0.000969562 -0.00547948 0)
(-0.001282 0.00912295 0)
(-0.00732087 0.0251972 0)
(-0.0188764 0.0371483 0)
(-0.0333312 0.0442061 0)
(-0.0487499 0.046449 0)
(-0.0637627 0.0443857 0)
(-0.0772497 0.0387261 0)
(-0.0883339 0.030235 0)
(-0.0963678 0.0196542 0)
(-0.100894 0.00769021 0)
(-0.101617 -0.00495335 0)
(-0.0984051 -0.0175213 0)
(-0.0913118 -0.0291557 0)
(-0.0806298 -0.0388724 0)
(-0.0669579 -0.0455905 0)
(-0.0512653 -0.048236 0)
(-0.0348978 -0.0459273 0)
(-0.0195335 -0.0382204 0)
(-0.00739764 -0.0253897 0)
(-0.00123237 -0.00882148 0)
(-0.00156652 0.0132663 0)
(-0.00887977 0.0354663 0)
(-0.0227448 0.0513687 0)
(-0.0398866 0.060384 0)
(-0.0579496 0.0628898 0)
(-0.0753532 0.0597271 0)
(-0.0908707 0.0519203 0)
(-0.103586 0.0405035 0)
(-0.112846 0.0264354 0)
(-0.118191 0.0105968 0)
(-0.119302 -0.00615381 0)
(-0.115997 -0.0228952 0)
(-0.108254 -0.0385595 0)
(-0.0962847 -0.0518813 0)
(-0.0806372 -0.0614152 0)
(-0.0623129 -0.0656534 0)
(-0.0428225 -0.0632623 0)
(-0.0241841 -0.0534124 0)
(-0.00923044 -0.0361667 0)
(-0.00155005 -0.0130003 0)
(-0.00190881 0.0182739 0)
(-0.010701 0.0477728 0)
(-0.0271776 0.0682237 0)
(-0.0472746 0.0793286 0)
(-0.0681559 0.081923 0)
(-0.088028 0.0773227 0)
(-0.105587 0.066969 0)
(-0.119921 0.0522218 0)
(-0.130415 0.0342725 0)
(-0.13664 0.0141617 0)
(-0.138273 -0.00713029 0)
(-0.13507 -0.0285537 0)
(-0.1269 -0.0488564 0)
(-0.113835 -0.0664868 0)
(-0.0962972 -0.0795794 0)
(-0.0752457 -0.0860722 0)
(-0.0523139 -0.0839949 0)
(-0.0298841 -0.071912 0)
(-0.0115371 -0.0494835 0)
(-0.00196687 -0.0182162 0)
(-0.002337 0.024316 0)
(-0.0128861 0.062437 0)
(-0.0323407 0.0880284 0)
(-0.0556573 0.101259 0)
(-0.0794484 0.103645 0)
(-0.101728 0.0971695 0)
(-0.121174 0.083817 0)
(-0.136951 0.0653373 0)
(-0.148554 0.0431643 0)
(-0.155637 0.0184673 0)
(-0.157902 -0.00770755 0)
(-0.155051 -0.0342482 0)
(-0.14681 -0.0597753 0)
(-0.133037 -0.0824741 0)
(-0.113919 -0.100018 0)
(-0.0902499 -0.109657 0)
(-0.0636816 -0.108546 0)
(-0.0369368 -0.094324 0)
(-0.0144985 -0.0659358 0)
(-0.00253172 -0.0247697 0)
(-0.00288433 0.0316205 0)
(-0.0155367 0.0798485 0)
(-0.0383547 0.1111 0)
(-0.0650567 0.126302 0)
(-0.091637 0.127984 0)
(-0.115978 0.119049 0)
(-0.136848 0.102184 0)
(-0.153602 0.079595 0)
(-0.165944 0.0529567 0)
(-0.173696 0.0235152 0)
(-0.176639 -0.00770312 0)
(-0.174439 -0.039626 0)
(-0.166654 -0.0708474 0)
(-0.152851 -0.0993596 0)
(-0.132845 -0.122373 0)
(-0.107072 -0.136325 0)
(-0.0769999 -0.137204 0)
(-0.0455725 -0.121275 0)
(-0.0183026 -0.0862518 0)
(-0.003305 -0.0330667 0)
(-0.00360019 0.0404814 0)
(-0.0187755 0.10044 0)
(-0.0452966 0.137673 0)
(-0.0753112 0.154362 0)
(-0.104162 0.154536 0)
(-0.129741 0.142362 0)
(-0.151083 0.12141 0)
(-0.1679 0.0944058 0)
(-0.180248 0.0632384 0)
(-0.188218 0.0291516 0)
(-0.19175 -0.00696438 0)
(-0.190516 -0.0442201 0)
(-0.18391 -0.0813375 0)
(-0.17114 -0.116256 0)
(-0.151491 -0.145795 0)
(-0.124779 -0.165507 0)
(-0.0919567 -0.169901 0)
(-0.0558947 -0.153257 0)
(-0.0231533 -0.111241 0)
(-0.00437098 -0.043633 0)
(-0.00457217 0.0512905 0)
(-0.0227859 0.124661 0)
(-0.0532028 0.167777 0)
(-0.0860026 0.184921 0)
(-0.115948 0.182347 0)
(-0.141215 0.165918 0)
(-0.161384 0.140279 0)
(-0.176752 0.108701 0)
(-0.187884 0.073226 0)
(-0.195268 0.0349811 0)
(-0.199087 -0.00542588 0)
(-0.199098 -0.0474662 0)
(-0.194567 -0.0902006 0)
(-0.184323 -0.131743 0)
(-0.166981 -0.168719 0)
(-0.141432 -0.195842 0)
(-0.107622 -0.20588 0)
(-0.0677864 -0.190379 0)
(-0.0292834 -0.141704 0)
(-0.00586016 -0.0571468 0)
(-0.0059687 0.0646141 0)
(-0.0278766 0.152943 0)
(-0.0620487 0.201031 0)
(-0.0963059 0.216749 0)
(-0.125147 0.209619 0)
(-0.147535 0.187696 0)
(-0.164003 0.156838 0)
(-0.175693 0.120808 0)
(-0.183842 0.0816711 0)
(-0.189428 0.0402886 0)
(-0.192966 -0.00317921 0)
(-0.194381 -0.0487574 0)
(-0.192912 -0.0960936 0)
(-0.187071 -0.143795 0)
(-0.174753 -0.188647 0)
(-0.15365 -0.224805 0)
(-0.122084 -0.243228 0)
(-0.0807283 -0.231955 0)
(-0.0369617 -0.178267 0)
(-0.00798769 -0.0745043 0)
(-0.00811402 0.0813493 0)
(-0.0345598 0.185606 0)
(-0.0716212 0.236288 0)
(-0.104629 0.247472 0)
(-0.128657 0.233344 0)
(-0.144298 0.204601 0)
(-0.153551 0.168272 0)
(-0.158647 0.128402 0)
(-0.161572 0.086848 0)
(-0.163808 0.0440161 0)
(-0.166226 -0.000534175 0)
(-0.169003 -0.0475452 0)
(-0.171502 -0.0974859 0)
(-0.172117 -0.149826 0)
(-0.168166 -0.202048 0)
(-0.156043 -0.248356 0)
(-0.131857 -0.278282 0)
(-0.0934169 -0.275857 0)
(-0.0464426 -0.221044 0)
(-0.0111061 -0.0969234 0)
(-0.0115813 0.102975 0)
(-0.0435327 0.22258 0)
(-0.0810208 0.27098 0)
(-0.10773 0.27294 0)
(-0.121158 0.248918 0)
(-0.124748 0.21234 0)
(-0.122459 0.170979 0)
(-0.117674 0.128673 0)
(-0.113001 0.0867199 0)
(-0.110264 0.0448639 0)
(-0.11059 0.00196899 0)
(-0.114431 -0.043487 0)
(-0.121465 -0.0929252 0)
(-0.13032 -0.147002 0)
(-0.138189 -0.204539 0)
(-0.140493 -0.260801 0)
(-0.130893 -0.305004 0)
(-0.102912 -0.317545 0)
(-0.0576588 -0.268925 0)
(-0.0157144 -0.126034 0)
(-0.0171385 0.131973 0)
(-0.0550812 0.262608 0)
(-0.0870484 0.299871 0)
(-0.0986536 0.286385 0)
(-0.0932571 0.249894 0)
(-0.0784649 0.205641 0)
(-0.0602628 0.161024 0)
(-0.042786 0.11885 0)
(-0.02876 0.0793984 0)
(-0.019923 0.0415991 0)
(-0.0173761 0.00365531 0)
(-0.0217664 -0.0366103 0)
(-0.0332452 -0.0814763 0)
(-0.0511481 -0.132891 0)
(-0.0733504 -0.191575 0)
(-0.0953047 -0.255135 0)
(-0.108938 -0.314547 0)
(-0.102749 -0.348739 0)
(-0.0690529 -0.318262 0)
(-0.0221427 -0.164 0)
(-0.0248497 0.172795 0)
(-0.0664559 0.301115 0)
(-0.079742 0.31246 0)
(-0.0622932 0.277138 0)
(-0.0282845 0.228015 0)
(0.0104416 0.179025 0)
(0.0470707 0.135164 0)
(0.0779447 0.0971692 0)
(0.101204 0.0639306 0)
(0.115891 0.0335938 0)
(0.121367 0.0039587 0)
(0.117004 -0.027424 0)
(0.102128 -0.0632607 0)
(0.0762626 -0.106462 0)
(0.0398356 -0.159731 0)
(-0.00439913 -0.224111 0)
(-0.0490205 -0.295215 0)
(-0.0791694 -0.355562 0)
(-0.0743053 -0.360338 0)
(-0.0290317 -0.213909 0)
(-0.0293875 0.23023 0)
(-0.0631121 0.3236 0)
(-0.0316717 0.288977 0)
(0.0328459 0.230431 0)
(0.102265 0.17512 0)
(0.16501 0.12926 0)
(0.217061 0.0930461 0)
(0.257388 0.064564 0)
(0.286239 0.0414735 0)
(0.304137 0.0215627 0)
(0.311305 0.00276071 0)
(0.307392 -0.0170329 0)
(0.291355 -0.0401979 0)
(0.261483 -0.0696992 0)
(0.215793 -0.109342 0)
(0.153224 -0.163468 0)
(0.076098 -0.234696 0)
(-0.00422281 -0.316987 0)
(-0.0543398 -0.374418 0)
(-0.0276177 -0.275056 0)
(0.0065281 0.275707 0)
(0.0145484 0.288618 0)
(0.126262 0.206614 0)
(0.246043 0.140947 0)
(0.341488 0.0956024 0)
(0.413829 0.0645906 0)
(0.467471 0.043374 0)
(0.505886 0.0285233 0)
(0.531889 0.017565 0)
(0.547461 0.00876064 0)
(0.553622 0.0007932 0)
(0.550404 -0.00752163 0)
(0.536767 -0.0175232 0)
(0.510396 -0.0310938 0)
(0.467472 -0.0512712 0)
(0.402588 -0.0831176 0)
(0.308395 -0.134434 0)
(0.179353 -0.214257 0)
(0.0483779 -0.314286 0)
(0.0235764 -0.304493 0)
(0.298235 0.144594 0)
(0.391963 0.126698 0)
(0.548672 0.0764705 0)
(0.664423 0.0444769 0)
(0.733331 0.0262024 0)
(0.776023 0.0156091 0)
(0.803796 0.00938001 0)
(0.821861 0.00560212 0)
(0.833178 0.00315317 0)
(0.83947 0.00138024 0)
(0.841571 -0.000124935 0)
(0.839624 -0.00167668 0)
(0.833102 -0.00361664 0)
(0.820606 -0.00647218 0)
(0.799371 -0.0112513 0)
(0.764124 -0.0200349 0)
(0.703052 -0.0370948 0)
(0.590735 -0.0704483 0)
(0.423496 -0.12667 0)
(0.313495 -0.149812 0)
)
;

boundaryField
{
    movingWall
    {
        type            fixedValue;
        value           uniform (1 0 0);
    }
    fixedWalls
    {
        type            noSlip;
    }
    frontAndBack
    {
        type            empty;
    }
}


// ************************************************************************* //
