/*--------------------------------*- C++ -*----------------------------------*\
  =========                 |
  \\      /  F ield         | OpenFOAM: The Open Source CFD Toolbox
   \\    /   O peration     | Website:  https://openfoam.org
    \\  /    A nd           | Version:  6
     \\/     M anipulation  |
\*---------------------------------------------------------------------------*/
FoamFile
{
    version     2.0;
    format      ascii;
    class       volVectorField;
    location    "0.055";
    object      U;
}
// * * * * * * * * * * * * * * * * * * * * * * * * * * * * * * * * * * * * * //

dimensions      [0 1 -1 0 0 0 0];

internalField   nonuniform List<vector> 
400
(
(0.000258046 -0.000254366 0)
(0.000162083 0.000104714 0)
(-0.00114131 0.000564691 0)
(-0.0034516 0.000894686 0)
(-0.00637474 0.00106187 0)
(-0.00950164 0.00107794 0)
(-0.0124627 0.00096763 0)
(-0.0149531 0.000759961 0)
(-0.0167428 0.00048393 0)
(-0.0176784 0.000167263 0)
(-0.0176828 -0.000163314 0)
(-0.0167544 -0.000481281 0)
(-0.0149677 -0.000759438 0)
(-0.012475 -0.000969257 0)
(-0.0095074 -0.00108088 0)
(-0.00637254 -0.00106471 0)
(-0.00344357 -0.000896024 0)
(-0.00113223 -0.000563904 0)
(0.000167744 -0.000102652 0)
(0.000259602 0.000255476 0)
(-6.5302e-05 -0.00019202 0)
(-0.00156549 0.00161238 0)
(-0.00562126 0.0036119 0)
(-0.0116624 0.00506745 0)
(-0.0188882 0.00580131 0)
(-0.0264627 0.00581838 0)
(-0.0335822 0.00520472 0)
(-0.0395546 0.00408571 0)
(-0.0438431 0.00260184 0)
(-0.0460838 0.000897562 0)
(-0.0460921 -0.000882138 0)
(-0.043865 -0.00259173 0)
(-0.0395822 -0.00408428 0)
(-0.0336058 -0.00521203 0)
(-0.0264741 -0.00583102 0)
(-0.0188846 -0.00581352 0)
(-0.0116473 -0.00507353 0)
(-0.00560329 -0.00360922 0)
(-0.00155355 -0.00160392 0)
(-6.1743e-05 0.00019768 0)
(-0.000510323 0.00103306 0)
(-0.00364764 0.00566198 0)
(-0.0104981 0.0102123 0)
(-0.019931 0.0134783 0)
(-0.0307804 0.0150704 0)
(-0.0419265 0.0149612 0)
(-0.0522881 0.0133224 0)
(-0.0609251 0.0104368 0)
(-0.0671043 0.00663949 0)
(-0.0703268 0.00228755 0)
(-0.0703386 -0.00225421 0)
(-0.0671359 -0.00661774 0)
(-0.0609661 -0.010434 0)
(-0.0523252 -0.0133389 0)
(-0.0419482 -0.0149897 0)
(-0.0307815 -0.0150985 0)
(-0.0199149 -0.0134933 0)
(-0.0104756 -0.0102079 0)
(-0.00363133 -0.00564362 0)
(-0.000505122 -0.00101888 0)
(-0.000904356 0.00337434 0)
(-0.00561782 0.0121024 0)
(-0.0152165 0.019919 0)
(-0.0278969 0.0253358 0)
(-0.0420822 0.0278186 0)
(-0.0563952 0.0273464 0)
(-0.0695421 0.0242154 0)
(-0.0804134 0.0189091 0)
(-0.0881518 0.0120076 0)
(-0.0921775 0.00413348 0)
(-0.092196 -0.00407355 0)
(-0.0882021 -0.0119675 0)
(-0.0804815 -0.0189018 0)
(-0.0696095 -0.0242421 0)
(-0.0564444 -0.0273955 0)
(-0.0421034 -0.0278692 0)
(-0.0278911 -0.025366 0)
(-0.0151958 -0.0199162 0)
(-0.00559919 -0.0120733 0)
(-0.000897692 -0.00334893 0)
(-0.0012523 0.00671967 0)
(-0.00747137 0.0208068 0)
(-0.0197759 0.0325572 0)
(-0.0356427 0.0403599 0)
(-0.0530378 0.043654 0)
(-0.0703175 0.0425111 0)
(-0.0860027 0.0374162 0)
(-0.0988605 0.0291046 0)
(-0.10796 0.0184407 0)
(-0.112682 0.00634493 0)
(-0.112713 -0.00624126 0)
(-0.108046 -0.0183682 0)
(-0.098981 -0.0290843 0)
(-0.0861306 -0.0374517 0)
(-0.0704255 -0.0425864 0)
(-0.0531068 -0.043738 0)
(-0.0356679 -0.0404177 0)
(-0.0197691 -0.0325656 0)
(-0.00745489 -0.0207707 0)
(-0.0012448 -0.00668182 0)
(-0.00158449 0.0110115 0)
(-0.00929735 0.0317472 0)
(-0.0243221 0.0481305 0)
(-0.0433761 0.0585384 0)
(-0.0639258 0.0625137 0)
(-0.0840484 0.0603373 0)
(-0.102098 0.0527752 0)
(-0.116756 0.0408788 0)
(-0.127065 0.0258371 0)
(-0.1324 0.00888942 0)
(-0.132451 -0.00871129 0)
(-0.127208 -0.0257062 0)
(-0.116964 -0.0408285 0)
(-0.102329 -0.0528143 0)
(-0.0842603 -0.0604459 0)
(-0.064084 -0.0626482 0)
(-0.0434646 -0.0586457 0)
(-0.0243492 -0.0481701 0)
(-0.00929112 -0.0317158 0)
(-0.00157757 -0.0109629 0)
(-0.00193146 0.0162562 0)
(-0.0111986 0.0449661 0)
(-0.0290291 0.0666875 0)
(-0.0513103 0.0798787 0)
(-0.0749646 0.084337 0)
(-0.0977865 0.0806998 0)
(-0.117993 0.0701309 0)
(-0.134232 0.0540757 0)
(-0.14557 0.0340871 0)
(-0.151421 0.0117329 0)
(-0.151502 -0.0114324 0)
(-0.145798 -0.0338567 0)
(-0.13457 -0.0539669 0)
(-0.118381 -0.0701621 0)
(-0.0981599 -0.080849 0)
(-0.0752667 -0.0845459 0)
(-0.0515067 -0.0800696 0)
(-0.0291189 -0.0667923 0)
(-0.0112151 -0.044963 0)
(-0.00192757 -0.0162039 0)
(-0.00232205 0.0225205 0)
(-0.0132755 0.0605828 0)
(-0.0340587 0.0883146 0)
(-0.0596078 0.104373 0)
(-0.0862497 0.109001 0)
(-0.111514 0.103383 0)
(-0.133539 0.0892264 0)
(-0.151015 0.0684574 0)
(-0.163107 0.043027 0)
(-0.169327 0.0148228 0)
(-0.169446 -0.0143332 0)
(-0.163448 -0.0426384 0)
(-0.151526 -0.0682473 0)
(-0.13414 -0.0892293 0)
(-0.112113 -0.103579 0)
(-0.0867606 -0.109315 0)
(-0.0599675 -0.104695 0)
(-0.0342489 -0.0885368 0)
(-0.013332 -0.0606483 0)
(-0.00232486 -0.0224791 0)
(-0.00278648 0.029928 0)
(-0.0156275 0.0787886 0)
(-0.0395481 0.113115 0)
(-0.0683468 0.131947 0)
(-0.0977003 0.13625 0)
(-0.124926 0.128002 0)
(-0.148192 0.109631 0)
(-0.166347 0.08364 0)
(-0.178759 0.0523962 0)
(-0.185115 0.0180723 0)
(-0.18528 -0.0173096 0)
(-0.179234 -0.051774 0)
(-0.167067 -0.0832705 0)
(-0.149057 -0.109573 0)
(-0.125815 -0.128243 0)
(-0.0984875 -0.136702 0)
(-0.0689319 -0.132462 0)
(-0.039884 -0.113527 0)
(-0.0157461 -0.0789833 0)
(-0.00280105 -0.0299227 0)
(-0.00336409 0.0386629 0)
(-0.0183689 0.0998335 0)
(-0.0456139 0.141156 0)
(-0.0774947 0.162375 0)
(-0.108997 0.16558 0)
(-0.137347 0.15388 0)
(-0.160912 0.130636 0)
(-0.178877 0.0990124 0)
(-0.19095 0.0617864 0)
(-0.197087 0.0213411 0)
(-0.197299 -0.0202108 0)
(-0.191563 -0.0608431 0)
(-0.17982 -0.0984115 0)
(-0.16207 -0.13047 0)
(-0.138568 -0.154156 0)
(-0.110118 -0.1662 0)
(-0.0783652 -0.163152 0)
(-0.0461444 -0.14185 0)
(-0.0185759 -0.100242 0)
(-0.00339707 -0.0387325 0)
(-0.00411751 0.0489896 0)
(-0.0216568 0.124016 0)
(-0.0523585 0.172394 0)
(-0.0868652 0.195142 0)
(-0.119489 0.196085 0)
(-0.147591 0.179907 0)
(-0.170014 0.151133 0)
(-0.186508 0.113653 0)
(-0.197298 0.070591 0)
(-0.202714 0.0244165 0)
(-0.202965 -0.0228288 0)
(-0.198027 -0.0692392 0)
(-0.187646 -0.112741 0)
(-0.171442 -0.150799 0)
(-0.149144 -0.180188 0)
(-0.120965 -0.196892 0)
(-0.0880635 -0.19625 0)
(-0.0531286 -0.173478 0)
(-0.0219811 -0.124745 0)
(-0.00417719 -0.0491883 0)
(-0.00515776 0.0612995 0)
(-0.0257327 0.151667 0)
(-0.0598628 0.206552 0)
(-0.0960234 0.229256 0)
(-0.128019 0.226258 0)
(-0.15376 0.20437 0)
(-0.172957 0.169502 0)
(-0.186217 0.126255 0)
(-0.194461 0.0779673 0)
(-0.198493 0.0269989 0)
(-0.198758 -0.0248919 0)
(-0.19524 -0.0761394 0)
(-0.187457 -0.124957 0)
(-0.174558 -0.168925 0)
(-0.155564 -0.204602 0)
(-0.129809 -0.227238 0)
(-0.0975495 -0.230743 0)
(-0.0609001 -0.208132 0)
(-0.0262023 -0.152844 0)
(-0.00525407 -0.0616992 0)
(-0.00668845 0.0762065 0)
(-0.0309761 0.183116 0)
(-0.0681194 0.242894 0)
(-0.104069 0.262947 0)
(-0.132617 0.253719 0)
(-0.152918 0.22477 0)
(-0.166069 0.183507 0)
(-0.17384 0.135093 0)
(-0.177987 0.0828291 0)
(-0.179833 0.0286993 0)
(-0.18007 -0.0260724 0)
(-0.178697 -0.0805067 0)
(-0.175005 -0.133363 0)
(-0.167637 -0.182613 0)
(-0.154776 -0.224866 0)
(-0.134571 -0.25481 0)
(-0.105843 -0.264811 0)
(-0.0694111 -0.245049 0)
(-0.0316107 -0.184873 0)
(-0.00683261 -0.0768963 0)
(-0.00907512 0.0947103 0)
(-0.0379362 0.218557 0)
(-0.0767969 0.27982 0)
(-0.109151 0.293218 0)
(-0.129931 0.274904 0)
(-0.140583 0.237681 0)
(-0.144178 0.190296 0)
(-0.143859 0.138083 0)
(-0.142218 0.0839079 0)
(-0.141028 0.0290635 0)
(-0.14118 -0.0260139 0)
(-0.142689 -0.0811577 0)
(-0.144684 -0.135931 0)
(-0.145386 -0.189029 0)
(-0.142153 -0.23753 0)
(-0.131748 -0.275974 0)
(-0.110966 -0.295368 0)
(-0.0782539 -0.282556 0)
(-0.0387337 -0.220999 0)
(-0.00927807 -0.095792 0)
(-0.0129067 0.118412 0)
(-0.0471891 0.25764 0)
(-0.0845426 0.314104 0)
(-0.107437 0.315244 0)
(-0.114224 0.284805 0)
(-0.109987 0.238795 0)
(-0.10019 0.186609 0)
(-0.0892571 0.133023 0)
(-0.0803475 0.0799402 0)
(-0.0754235 0.0276429 0)
(-0.0754247 -0.0243947 0)
(-0.0803856 -0.0769463 0)
(-0.0894266 -0.130556 0)
(-0.100619 -0.18497 0)
(-0.110789 -0.238284 0)
(-0.115429 -0.285653 0)
(-0.108909 -0.317466 0)
(-0.0859452 -0.317292 0)
(-0.0480962 -0.260792 0)
(-0.0131731 -0.119986 0)
(-0.018831 0.149825 0)
(-0.0584597 0.298447 0)
(-0.0871138 0.339576 0)
(-0.0910264 0.321666 0)
(-0.0757466 0.276981 0)
(-0.0511158 0.223382 0)
(-0.0247314 0.169387 0)
(-0.00160461 0.118144 0)
(0.0152292 0.0700325 0)
(0.0241124 0.0241318 0)
(0.0243102 -0.0210348 0)
(0.0157752 -0.0671063 0)
(-0.000848823 -0.115594 0)
(-0.0239805 -0.167481 0)
(-0.0506244 -0.222451 0)
(-0.075738 -0.277375 0)
(-0.0915796 -0.323611 0)
(-0.088047 -0.342888 0)
(-0.0593121 -0.302174 0)
(-0.0191388 -0.15196 0)
(-0.0263683 0.193092 0)
(-0.0675833 0.335104 0)
(-0.072963 0.344703 0)
(-0.0441034 0.301765 0)
(0.00160529 0.24405 0)
(0.0502316 0.18735 0)
(0.0938303 0.13686 0)
(0.128379 0.0929558 0)
(0.152078 0.0541883 0)
(0.164237 0.0185613 0)
(0.164629 -0.0160346 0)
(0.15321 -0.0517301 0)
(0.130111 -0.0906726 0)
(0.0959223 -0.134935 0)
(0.0523471 -0.186076 0)
(0.00335008 -0.24383 0)
(-0.0430777 -0.303023 0)
(-0.0727996 -0.347599 0)
(-0.0680095 -0.339004 0)
(-0.0266121 -0.195759 0)
(-0.0286568 0.251052 0)
(-0.0577851 0.350951 0)
(-0.0140061 0.309648 0)
(0.0632622 0.24242 0)
(0.142966 0.18031 0)
(0.212743 0.129917 0)
(0.268489 0.0905892 0)
(0.309464 0.0595746 0)
(0.33626 0.0340328 0)
(0.349668 0.0115482 0)
(0.350161 -0.00995091 0)
(0.337715 -0.0324218 0)
(0.311798 -0.0579613 0)
(0.271536 -0.0890429 0)
(0.216217 -0.128611 0)
(0.146444 -0.179577 0)
(0.0662097 -0.242757 0)
(-0.0121259 -0.311528 0)
(-0.0571583 -0.354251 0)
(-0.0285305 -0.253893 0)
(0.0139495 0.28904 0)
(0.0303833 0.302875 0)
(0.154091 0.214125 0)
(0.282774 0.142373 0)
(0.38298 0.0939716 0)
(0.457149 0.0619837 0)
(0.510518 0.0405679 0)
(0.547105 0.0255592 0)
(0.569974 0.0142131 0)
(0.58113 0.00474065 0)
(0.581537 -0.00414477 0)
(0.571199 -0.0135787 0)
(0.549152 -0.0248523 0)
(0.513366 -0.0397701 0)
(0.460705 -0.0611215 0)
(0.387016 -0.0931826 0)
(0.286864 -0.141998 0)
(0.157536 -0.214673 0)
(0.0325366 -0.30455 0)
(0.0149974 -0.290853 0)
(0.304909 0.147201 0)
(0.40625 0.127709 0)
(0.569525 0.0747679 0)
(0.686099 0.0418525 0)
(0.753534 0.0238646 0)
(0.794606 0.0139518 0)
(0.820891 0.00831571 0)
(0.837589 0.00490146 0)
(0.847524 0.00260797 0)
(0.852225 0.000837933 0)
(0.852353 -0.000774221 0)
(0.84792 -0.00252741 0)
(0.838288 -0.00478383 0)
(0.821953 -0.00813463 0)
(0.796099 -0.0136767 0)
(0.755514 -0.0234796 0)
(0.688573 -0.0414049 0)
(0.572185 -0.0744246 0)
(0.40821 -0.127747 0)
(0.305837 -0.147542 0)
)
;

boundaryField
{
    movingWall
    {
        type            fixedValue;
        value           uniform (1 0 0);
    }
    fixedWalls
    {
        type            noSlip;
    }
    frontAndBack
    {
        type            empty;
    }
}


// ************************************************************************* //
