/*--------------------------------*- C++ -*----------------------------------*\
  =========                 |
  \\      /  F ield         | OpenFOAM: The Open Source CFD Toolbox
   \\    /   O peration     | Website:  https://openfoam.org
    \\  /    A nd           | Version:  6
     \\/     M anipulation  |
\*---------------------------------------------------------------------------*/
FoamFile
{
    version     2.0;
    format      ascii;
    class       volScalarField;
    location    "0.035";
    object      p;
}
// * * * * * * * * * * * * * * * * * * * * * * * * * * * * * * * * * * * * * //

dimensions      [0 2 -2 0 0 0 0];

internalField   nonuniform List<scalar> 
400
(
1.32875e-05
-0.034786
-0.0781219
-0.11156
-0.12408
-0.110735
-0.0711541
-0.00826254
0.0727649
0.165294
0.261848
0.354645
0.436107
0.499439
0.539301
0.552668
0.539925
0.506157
0.462596
0.427802
0.0345053
-0.00125004
-0.0352631
-0.0583287
-0.0650053
-0.051816
-0.0183134
0.0333907
0.0993692
0.174458
0.252752
0.328069
0.394419
0.446503
0.480255
0.493475
0.486617
0.463267
0.429058
0.393343
0.0803488
0.03081
-0.00600352
-0.0272927
-0.032726
-0.0203965
0.00966168
0.0553993
0.113373
0.179156
0.247709
0.313749
0.372147
0.418328
0.448692
0.461084
0.455465
0.433846
0.396781
0.347273
0.122612
0.0540638
0.00826854
-0.0160201
-0.0226475
-0.0110957
0.0178815
0.0618578
0.117364
0.180192
0.245646
0.308822
0.364911
0.409518
0.438966
0.45068
0.443871
0.419166
0.372987
0.304382
0.15156
0.062895
0.0063316
-0.0222448
-0.0302538
-0.018413
0.0117281
0.0571677
0.114156
0.17843
0.245358
0.31013
0.36797
0.414366
0.445286
0.457503
0.449381
0.420303
0.363157
0.274232
0.160223
0.0509939
-0.016814
-0.0495534
-0.0579159
-0.0437988
-0.0096287
0.0408608
0.103452
0.173628
0.246625
0.317524
0.381376
0.433333
0.468791
0.483677
0.475392
0.442103
0.373451
0.2636
0.142558
0.0120967
-0.0667823
-0.102496
-0.109085
-0.0897344
-0.047895
0.0118038
0.0845237
0.16536
0.249295
0.33118
0.405757
0.467689
0.511607
0.532388
0.52627
0.490057
0.41002
0.278368
0.092084
-0.0606712
-0.149853
-0.18621
-0.187659
-0.158997
-0.104951
-0.0312317
0.0565863
0.153153
0.253167
0.351236
0.441754
0.51881
0.576119
0.607261
0.606998
0.570384
0.479714
0.324945
0.000785145
-0.17572
-0.273667
-0.306899
-0.298291
-0.254853
-0.182963
-0.0896282
0.018777
0.136493
0.258031
0.377862
0.490118
0.58833
0.665187
0.712697
0.723688
0.690772
0.591062
0.411443
-0.141967
-0.343931
-0.447799
-0.472031
-0.446315
-0.38082
-0.284092
-0.164645
-0.0296336
0.114947
0.263676
0.411165
0.551536
0.677922
0.781975
0.853848
0.883826
0.861003
0.755284
0.548848
-0.35086
-0.579873
-0.684405
-0.690427
-0.637446
-0.540182
-0.40996
-0.256948
-0.0888942
0.0883522
0.269912
0.451041
0.626335
0.788914
0.929566
1.03639
1.09642
1.09367
0.987602
0.752596
-0.647085
-0.903651
-0.999021
-0.972181
-0.8772
-0.7352
-0.560872
-0.365952
-0.158293
0.0570883
0.276621
0.497005
0.714098
0.921735
1.11036
1.26609
1.37202
1.40507
1.30919
1.04519
-1.06301
-1.34383
-1.41142
-1.32816
-1.16975
-0.965822
-0.734646
-0.488904
-0.235531
0.0224145
0.283806
0.547931
0.813093
1.07505
1.325
1.54778
1.7223
1.81611
1.75024
1.46109
-1.65191
-1.94217
-1.94608
-1.76836
-1.51564
-1.22752
-0.924897
-0.619663
-0.315962
-0.0131732
0.291569
0.601638
0.91939
1.24434
1.57052
1.88335
2.1586
2.35289
2.35477
2.05676
-2.50784
-2.76056
-2.63054
-2.29736
-1.90714
-1.50759
-1.11849
-0.747153
-0.391783
-0.0456807
0.299901
0.654156
1.02545
1.41958
1.83678
2.26718
2.68742
3.04507
3.18767
2.93098
-3.79995
-3.88702
-3.48932
-2.90665
-2.32192
-1.78093
-1.29323
-0.854354
-0.451789
-0.0697822
0.308252
0.698968
1.11872
1.58268
2.10225
2.67991
3.30278
3.91967
4.34024
4.25895
-5.8324
-5.43568
-4.53241
-3.56806
-2.7203
-2.00973
-1.41903
-0.920094
-0.483059
-0.0799892
0.315022
0.727085
1.18202
1.70751
2.33288
3.08519
3.97937
4.98925
5.92966
6.35118
-9.28483
-7.55094
-5.69685
-4.18852
-3.01864
-2.12958
-1.4517
-0.916904
-0.470847
-0.071536
0.315993
0.724478
1.1889
1.75127
2.46591
3.40104
4.62563
6.19288
8.10494
9.89564
-15.9314
-10.3233
-6.56605
-4.38394
-2.94831
-1.96852
-1.28696
-0.785263
-0.385469
-0.0364851
0.299972
0.658488
1.07739
1.60785
2.32805
3.3576
4.85668
7.11562
10.9622
16.6723
-27.0777
-12.99
-6.27688
-3.58853
-2.19647
-1.36872
-0.848552
-0.489892
-0.212815
0.0269803
0.259117
0.509329
0.807193
1.19682
1.75783
2.63778
4.10088
6.88635
13.7135
27.916
)
;

boundaryField
{
    movingWall
    {
        type            zeroGradient;
    }
    fixedWalls
    {
        type            zeroGradient;
    }
    frontAndBack
    {
        type            empty;
    }
}


// ************************************************************************* //
