/*--------------------------------*- C++ -*----------------------------------*\
  =========                 |
  \\      /  F ield         | OpenFOAM: The Open Source CFD Toolbox
   \\    /   O peration     | Website:  https://openfoam.org
    \\  /    A nd           | Version:  6
     \\/     M anipulation  |
\*---------------------------------------------------------------------------*/
FoamFile
{
    version     2.0;
    format      ascii;
    class       volVectorField;
    location    "0.03";
    object      U;
}
// * * * * * * * * * * * * * * * * * * * * * * * * * * * * * * * * * * * * * //

dimensions      [0 1 -1 0 0 0 0];

internalField   nonuniform List<vector> 
400
(
(0.000104063 -0.00010307 0)
(-0.000188018 0.000216964 0)
(-0.00137342 0.000521863 0)
(-0.0031554 0.000693964 0)
(-0.00519821 0.000746991 0)
(-0.00723889 0.000710667 0)
(-0.009081 0.000611767 0)
(-0.0105851 0.000471048 0)
(-0.011657 0.000303112 0)
(-0.0122357 0.000118169 0)
(-0.0122862 -7.56221e-05 0)
(-0.0117968 -0.000269916 0)
(-0.0107826 -0.000454149 0)
(-0.00929259 -0.00061373 0)
(-0.00742134 -0.000728649 0)
(-0.00532144 -0.000773222 0)
(-0.0032119 -0.000718133 0)
(-0.00137962 -0.000535224 0)
(-0.000174812 -0.000217342 0)
(0.000111613 0.00010846 0)
(-0.000198472 0.000170078 0)
(-0.00162224 0.001636 0)
(-0.00481757 0.00291845 0)
(-0.00914292 0.00366453 0)
(-0.0139538 0.0038911 0)
(-0.018724 0.00369572 0)
(-0.0230269 0.00318523 0)
(-0.0265416 0.00245292 0)
(-0.0290433 0.00157185 0)
(-0.0303851 0.000598517 0)
(-0.0304844 -0.000419004 0)
(-0.0293192 -0.00143186 0)
(-0.0269334 -0.00238173 0)
(-0.0234512 -0.00319364 0)
(-0.0190973 -0.00377197 0)
(-0.0142167 -0.00400314 0)
(-0.00927728 -0.00377 0)
(-0.00485028 -0.00298124 0)
(-0.00160844 -0.0016454 0)
(-0.000187578 -0.000152665 0)
(-0.000508134 0.00132731 0)
(-0.0030136 0.00484772 0)
(-0.00797199 0.0076832 0)
(-0.0143505 0.00932465 0)
(-0.0212743 0.00978871 0)
(-0.0280623 0.0092623 0)
(-0.0341517 0.00797343 0)
(-0.0391106 0.00613447 0)
(-0.0426332 0.00392126 0)
(-0.0445184 0.00147633 0)
(-0.0446537 -0.0010757 0)
(-0.0430097 -0.00360851 0)
(-0.0396476 -0.00597487 0)
(-0.0347374 -0.00799153 0)
(-0.0285832 -0.00943294 0)
(-0.0216466 -0.0100419 0)
(-0.0145453 -0.00956721 0)
(-0.00802228 -0.0078342 0)
(-0.00299493 -0.00487965 0)
(-0.000492541 -0.00129457 0)
(-0.000742232 0.00319208 0)
(-0.00416931 0.00951667 0)
(-0.0107014 0.0142747 0)
(-0.0188905 0.0169468 0)
(-0.0276257 0.0176111 0)
(-0.0360963 0.0165812 0)
(-0.0436429 0.0142369 0)
(-0.0497636 0.0109364 0)
(-0.054105 0.00698191 0)
(-0.0564346 0.00262189 0)
(-0.0566204 -0.00192448 0)
(-0.0546241 -0.00643527 0)
(-0.0505097 -0.0106535 0)
(-0.0444662 -0.0142622 0)
(-0.036841 -0.0168746 0)
(-0.0281716 -0.0180548 0)
(-0.0191879 -0.0173799 0)
(-0.0107871 -0.0145528 0)
(-0.00414647 -0.0095835 0)
(-0.000719494 -0.00313574 0)
(-0.000931884 0.00561428 0)
(-0.00519283 0.0154398 0)
(-0.0132213 0.0224624 0)
(-0.0231489 0.0262585 0)
(-0.0336081 0.0270509 0)
(-0.043653 0.0253374 0)
(-0.052541 0.0216884 0)
(-0.0597209 0.0166339 0)
(-0.0648128 0.010618 0)
(-0.0675681 0.00400451 0)
(-0.0678414 -0.00288749 0)
(-0.0655804 -0.00973542 0)
(-0.0608363 -0.0161641 0)
(-0.053794 -0.0217066 0)
(-0.0448174 -0.0257894 0)
(-0.034498 -0.0277589 0)
(-0.0236723 -0.0269699 0)
(-0.0134098 -0.0229394 0)
(-0.00518722 -0.0155736 0)
(-0.00090366 -0.00552913 0)
(-0.00111638 0.00855081 0)
(-0.0062314 0.0226004 0)
(-0.0158274 0.0322694 0)
(-0.0275851 0.037294 0)
(-0.0398462 0.03813 0)
(-0.0515149 0.0355337 0)
(-0.061768 0.0303192 0)
(-0.0700195 0.0232208 0)
(-0.0758797 0.0148401 0)
(-0.0790966 0.00565928 0)
(-0.0795156 -0.00390638 0)
(-0.0770636 -0.0134384 0)
(-0.0717617 -0.0224429 0)
(-0.0637649 -0.0302912 0)
(-0.053427 -0.0361919 0)
(-0.0413763 -0.0392216 0)
(-0.028559 -0.0384384 0)
(-0.0162511 -0.0330855 0)
(-0.00629189 -0.0228819 0)
(-0.00108956 -0.00844674 0)
(-0.00133103 0.0120448 0)
(-0.00743175 0.0311223 0)
(-0.0188244 0.0438648 0)
(-0.0326567 0.0502239 0)
(-0.0469273 0.0509908 0)
(-0.0603728 0.0472749 0)
(-0.0720946 0.0402035 0)
(-0.0814895 0.0307554 0)
(-0.0881794 0.0197054 0)
(-0.0919254 0.00765074 0)
(-0.0925696 -0.00491088 0)
(-0.0900107 -0.0174816 0)
(-0.0842178 -0.0294585 0)
(-0.0752831 -0.0400437 0)
(-0.0635137 -0.0481934 0)
(-0.0495466 -0.0526443 0)
(-0.0344355 -0.0520541 0)
(-0.0197019 -0.0452697 0)
(-0.00764457 -0.0317174 0)
(-0.00131961 -0.0119633 0)
(-0.00160967 0.0162187 0)
(-0.00893888 0.0412718 0)
(-0.0225111 0.0575615 0)
(-0.0387935 0.0653356 0)
(-0.0553666 0.0658584 0)
(-0.070786 0.060719 0)
(-0.0840951 0.0514473 0)
(-0.0947058 0.0393165 0)
(-0.102285 0.0252878 0)
(-0.106633 0.0100621 0)
(-0.1076 -0.00580828 0)
(-0.105051 -0.0217784 0)
(-0.0988761 -0.0371616 0)
(-0.0890599 -0.0509939 0)
(-0.0758054 -0.0619436 0)
(-0.0597056 -0.0683198 0)
(-0.0418964 -0.0682368 0)
(-0.0241778 -0.0599663 0)
(-0.00944401 -0.0424813 0)
(-0.00163867 -0.0162557 0)
(-0.00198961 0.0212754 0)
(-0.0109056 0.05346 0)
(-0.0271835 0.0738069 0)
(-0.0463837 0.0830042 0)
(-0.065573 0.0829939 0)
(-0.0831277 0.07602 0)
(-0.0980756 0.0641317 0)
(-0.1099 0.0489536 0)
(-0.118367 0.031643 0)
(-0.123358 0.0129792 0)
(-0.124753 -0.00647696 0)
(-0.122382 -0.0261881 0)
(-0.116026 -0.0454329 0)
(-0.105503 -0.0631047 0)
(-0.0908269 -0.077558 0)
(-0.0724512 -0.0865715 0)
(-0.0515232 -0.0875236 0)
(-0.0301261 -0.0778444 0)
(-0.0119198 -0.0557862 0)
(-0.00210164 -0.0216149 0)
(-0.00251897 0.0275082 0)
(-0.0135072 0.0682424 0)
(-0.0331379 0.0931511 0)
(-0.0557469 0.103628 0)
(-0.0777821 0.102607 0)
(-0.0974777 0.0932324 0)
(-0.113931 0.0782206 0)
(-0.126789 0.0596094 0)
(-0.135999 0.0387511 0)
(-0.141585 0.016459 0)
(-0.143495 -0.00676757 0)
(-0.14153 -0.0304831 0)
(-0.135336 -0.0540143 0)
(-0.124493 -0.0761718 0)
(-0.108709 -0.0949966 0)
(-0.0881481 -0.107635 0)
(-0.0638175 -0.110481 0)
(-0.0380172 -0.0997337 0)
(-0.0153504 -0.0724715 0)
(-0.00278387 -0.0284719 0)
(-0.00326735 0.0353227 0)
(-0.0169579 0.086315 0)
(-0.0406581 0.116185 0)
(-0.0670605 0.127514 0)
(-0.0919118 0.124715 0)
(-0.113413 0.112167 0)
(-0.130884 0.093429 0)
(-0.144276 0.0710097 0)
(-0.15383 0.0464329 0)
(-0.159793 0.0204764 0)
(-0.162234 -0.00652151 0)
(-0.16095 -0.0343249 0)
(-0.15544 -0.0624355 0)
(-0.144979 -0.0896951 0)
(-0.12883 -0.113889 0)
(-0.106646 -0.131458 0)
(-0.0790299 -0.137534 0)
(-0.0482863 -0.126528 0)
(-0.0200736 -0.0936026 0)
(-0.00379478 -0.0374362 0)
(-0.00434331 0.0452757 0)
(-0.0215277 0.108493 0)
(-0.0499646 0.143417 0)
(-0.0801994 0.154683 0)
(-0.10729 0.14892 0)
(-0.12965 0.132177 0)
(-0.147066 0.109042 0)
(-0.159992 0.0825174 0)
(-0.1691 0.0542388 0)
(-0.174949 0.0248446 0)
(-0.177794 -0.00561469 0)
(-0.177474 -0.0372623 0)
(-0.173359 -0.0699481 0)
(-0.164384 -0.102731 0)
(-0.149236 -0.133294 0)
(-0.126789 -0.1574 0)
(-0.0968194 -0.168651 0)
(-0.0611815 -0.158966 0)
(-0.0264798 -0.120417 0)
(-0.00529768 -0.0493507 0)
(-0.00592678 0.0581418 0)
(-0.0275625 0.135643 0)
(-0.0610975 0.175026 0)
(-0.0944309 0.184529 0)
(-0.122192 0.174067 0)
(-0.143476 0.151867 0)
(-0.158915 0.123685 0)
(-0.169694 0.0929639 0)
(-0.177047 0.0613228 0)
(-0.181924 0.0291199 0)
(-0.184821 -0.00402742 0)
(-0.18568 -0.0387645 0)
(-0.183813 -0.0754945 0)
(-0.177857 -0.113755 0)
(-0.165865 -0.151422 0)
(-0.145673 -0.18379 0)
(-0.115679 -0.202829 0)
(-0.0764633 -0.197197 0)
(-0.0349729 -0.154153 0)
(-0.00754029 -0.0653627 0)
(-0.00832825 0.0750256 0)
(-0.0355002 0.168502 0)
(-0.0736627 0.210395 0)
(-0.107861 0.215265 0)
(-0.133099 0.197759 0)
(-0.149964 0.168744 0)
(-0.160414 0.135105 0)
(-0.166588 0.100516 0)
(-0.170335 0.0663571 0)
(-0.172995 0.0325279 0)
(-0.175314 -0.00192406 0)
(-0.177406 -0.0383018 0)
(-0.178652 -0.0777542 0)
(-0.177563 -0.120607 0)
(-0.17168 -0.165378 0)
(-0.157697 -0.207414 0)
(-0.13206 -0.237338 0)
(-0.092855 -0.239998 0)
(-0.0458536 -0.19563 0)
(-0.010895 -0.0870018 0)
(-0.0120662 0.0975323 0)
(-0.0457972 0.207246 0)
(-0.0862284 0.247277 0)
(-0.116403 0.243122 0)
(-0.133538 0.215803 0)
(-0.140916 0.178926 0)
(-0.142287 0.140083 0)
(-0.140783 0.102704 0)
(-0.138736 0.0675884 0)
(-0.13771 0.0339871 0)
(-0.138611 0.000299677 0)
(-0.141748 -0.0354755 0)
(-0.146756 -0.0753295 0)
(-0.152355 -0.120644 0)
(-0.155989 -0.17114 0)
(-0.1535 -0.223109 0)
(-0.139121 -0.266818 0)
(-0.107021 -0.283563 0)
(-0.0589368 -0.244373 0)
(-0.0158522 -0.116206 0)
(-0.0178103 0.128079 0)
(-0.0583308 0.250505 0)
(-0.094727 0.28035 0)
(-0.11174 0.261301 0)
(-0.112284 0.22177 0)
(-0.103625 0.177185 0)
(-0.0913539 0.134737 0)
(-0.0791851 0.0968069 0)
(-0.0694423 0.0631809 0)
(-0.0635074 0.0323323 0)
(-0.0621927 0.002066 0)
(-0.0659461 -0.030178 0)
(-0.0748346 -0.0671172 0)
(-0.088259 -0.111258 0)
(-0.104349 -0.164021 0)
(-0.11904 -0.223825 0)
(-0.124975 -0.282515 0)
(-0.111578 -0.31985 0)
(-0.0723251 -0.297044 0)
(-0.0226883 -0.155347 0)
(-0.0255122 0.170778 0)
(-0.0698938 0.29312 0)
(-0.0882366 0.298501 0)
(-0.0772661 0.258578 0)
(-0.0506136 0.206919 0)
(-0.0195989 0.157614 0)
(0.00955018 0.11544 0)
(0.0337446 0.0807237 0)
(0.0516215 0.0519167 0)
(0.0626289 0.0267809 0)
(0.0664357 0.00280633 0)
(0.0626186 -0.0227318 0)
(0.0505927 -0.0528427 0)
(0.0298244 -0.090818 0)
(0.000492734 -0.139837 0)
(-0.0351319 -0.201488 0)
(-0.0703727 -0.271972 0)
(-0.09139 -0.334426 0)
(-0.0791192 -0.344656 0)
(-0.029927 -0.207487 0)
(-0.0297891 0.229853 0)
(-0.0656904 0.319633 0)
(-0.0387732 0.280941 0)
(0.0194553 0.219198 0)
(0.0813903 0.162136 0)
(0.136145 0.116063 0)
(0.180426 0.0809683 0)
(0.213856 0.0546115 0)
(0.237206 0.0343244 0)
(0.251379 0.0176287 0)
(0.256863 0.00225434 0)
(0.253465 -0.0140622 0)
(0.240189 -0.0338737 0)
(0.215248 -0.0603639 0)
(0.176417 -0.0976081 0)
(0.122193 -0.150242 0)
(0.0542402 -0.221183 0)
(-0.0169774 -0.304731 0)
(-0.0594999 -0.365384 0)
(-0.0286156 -0.271513 0)
(0.00655311 0.276188 0)
(0.0136122 0.287596 0)
(0.12236 0.203586 0)
(0.237371 0.136339 0)
(0.326786 0.0901568 0)
(0.392581 0.0590664 0)
(0.439884 0.0383945 0)
(0.472759 0.0245232 0)
(0.494444 0.0148061 0)
(0.507195 0.00737652 0)
(0.51219 0.000831407 0)
(0.509532 -0.00607678 0)
(0.49817 -0.0147533 0)
(0.475689 -0.0271672 0)
(0.438051 -0.0464653 0)
(0.379488 -0.0778218 0)
(0.292161 -0.129135 0)
(0.169927 -0.209558 0)
(0.0446661 -0.310995 0)
(0.0229203 -0.303486 0)
(0.298535 0.144932 0)
(0.39239 0.126749 0)
(0.548138 0.0760306 0)
(0.661841 0.0436438 0)
(0.727979 0.0251673 0)
(0.767659 0.0145615 0)
(0.792589 0.00846406 0)
(0.808269 0.0049069 0)
(0.817833 0.00272192 0)
(0.823092 0.00122604 0)
(0.82491 -5.83305e-06 0)
(0.823423 -0.00129808 0)
(0.81807 -0.00300254 0)
(0.80738 -0.00566145 0)
(0.788461 -0.0103023 0)
(0.755859 -0.0190244 0)
(0.697534 -0.0361127 0)
(0.587832 -0.0696079 0)
(0.422679 -0.126158 0)
(0.313508 -0.149804 0)
)
;

boundaryField
{
    movingWall
    {
        type            fixedValue;
        value           uniform (1 0 0);
    }
    fixedWalls
    {
        type            noSlip;
    }
    frontAndBack
    {
        type            empty;
    }
}


// ************************************************************************* //
