/*--------------------------------*- C++ -*----------------------------------*\
  =========                 |
  \\      /  F ield         | OpenFOAM: The Open Source CFD Toolbox
   \\    /   O peration     | Website:  https://openfoam.org
    \\  /    A nd           | Version:  6
     \\/     M anipulation  |
\*---------------------------------------------------------------------------*/
FoamFile
{
    version     2.0;
    format      ascii;
    class       volScalarField;
    location    "0.005";
    object      p;
}
// * * * * * * * * * * * * * * * * * * * * * * * * * * * * * * * * * * * * * //

dimensions      [0 2 -2 0 0 0 0];

internalField   nonuniform List<scalar> 
400
(
3.41432e-08
-0.0034587
-0.00413902
-0.000644589
0.00688263
0.0180198
0.0322475
0.0489664
0.0675214
0.0872176
0.107333
0.127133
0.145886
0.16288
0.177438
0.188939
0.19685
0.20076
0.200479
0.197268
0.00292508
-0.000646132
-0.00078453
0.00299953
0.0103879
0.0211146
0.0347732
0.0508247
0.0686512
0.0875853
0.106928
0.125965
0.143988
0.160309
0.174289
0.185365
0.193106
0.197239
0.197421
0.194079
0.00310178
-0.00127946
-0.00146444
0.00247597
0.00997049
0.0207676
0.0344857
0.0505948
0.0684816
0.0874804
0.106892
0.126002
0.144097
0.16049
0.174541
0.185687
0.193516
0.197748
0.197787
0.193549
-0.00057679
-0.00578048
-0.00616728
-0.00203677
0.00584051
0.0171676
0.031535
0.0483845
0.0670769
0.0869233
0.107202
0.127174
0.146101
0.163266
0.177997
0.189693
0.197904
0.202294
0.202066
0.196927
-0.00824183
-0.0142052
-0.0147473
-0.0102683
-0.00169966
0.0105973
0.0261586
0.0443709
0.0645453
0.0859481
0.107816
0.129367
0.149818
0.168399
0.184378
0.197088
0.206013
0.210746
0.210328
0.204382
-0.0201966
-0.0269927
-0.0276332
-0.0225864
-0.0129556
0.000811176
0.0181674
0.0384175
0.0607988
0.084513
0.108738
0.132635
0.155355
0.176057
0.193919
0.208179
0.218221
0.223542
0.22301
0.216191
-0.0369151
-0.0447391
-0.0454272
-0.0395341
-0.0283894
-0.0125655
0.00727242
0.0303142
0.0556996
0.0825483
0.109967
0.137047
0.162863
0.18648
0.206963
0.223412
0.235071
0.241293
0.240712
0.23282
-0.0590832
-0.0682322
-0.0689087
-0.0618059
-0.0485813
-0.0299929
-0.00687428
0.0198118
0.0490832
0.0799649
0.111486
0.142667
0.172499
0.199941
0.223914
0.243336
0.257248
0.264785
0.264233
0.254957
-0.0876649
-0.0985517
-0.0991221
-0.0903092
-0.0742664
-0.052035
-0.0246849
0.00662294
0.0407622
0.0766593
0.113272
0.149559
0.184437
0.216753
0.24526
0.268638
0.285642
0.29507
0.294668
0.283571
-0.123989
-0.137179
-0.137462
-0.126206
-0.106343
-0.0793462
-0.0466139
-0.00955629
0.0305416
0.0725177
0.115284
0.157767
0.198836
0.237242
0.271553
0.300154
0.321397
0.333562
0.333535
0.320008
-0.16991
-0.186175
-0.18579
-0.170965
-0.145873
-0.112644
-0.0731217
-0.0290142
0.0182367
0.0674164
0.117444
0.167275
0.215791
0.261689
0.303363
0.338847
0.365952
0.382168
0.382976
0.366179
-0.228145
-0.248494
-0.246622
-0.226412
-0.194059
-0.152653
-0.104611
-0.0519718
0.00370453
0.0612253
0.119612
0.177951
0.235243
0.290224
0.34117
0.385743
0.421068
0.443464
0.446097
0.424927
-0.302981
-0.328523
-0.323374
-0.294773
-0.252166
-0.19998
-0.141305
-0.0784815
-0.0130879
0.0538403
0.121575
0.189493
0.256876
0.322671
0.385184
0.441778
0.488795
0.520923
0.527547
0.500829
-0.401883
-0.433032
-0.420643
-0.378576
-0.321284
-0.254855
-0.183017
-0.108251
-0.0319415
0.0452506
0.12306
0.201371
0.279984
0.35833
0.43505
0.507478
0.57129
0.619149
0.634551
0.602048
-0.539072
-0.5727
-0.544311
-0.480221
-0.401783
-0.316639
-0.228769
-0.140374
-0.0522511
0.0356386
0.123766
0.212783
0.303311
0.395659
0.48933
0.582284
0.670186
0.743846
0.778525
0.744447
-0.742191
-0.763814
-0.70099
-0.60095
-0.492318
-0.383039
-0.276249
-0.17297
-0.0727647
0.0255437
0.12347
0.222699
0.324987
0.431997
0.544894
0.663526
0.785263
0.900763
0.976377
0.958719
-1.0645
-1.02892
-0.895904
-0.739026
-0.588373
-0.449046
-0.321119
-0.202759
-0.091294
0.0161128
0.122296
0.230162
0.342835
0.463802
0.59691
0.745909
0.913003
1.09311
1.25039
1.30268
-1.62671
-1.39718
-1.12236
-0.881138
-0.676727
-0.503723
-0.355331
-0.224241
-0.104322
0.00931963
0.120892
0.234462
0.35451
0.4866
0.638289
0.819777
1.04254
1.31572
1.63406
1.90851
-2.73451
-1.88882
-1.31638
-0.968871
-0.71716
-0.521495
-0.363265
-0.228134
-0.106551
0.00779436
0.119765
0.233894
0.355312
0.491006
0.652043
0.85643
1.13042
1.52309
2.16906
3.10517
-4.61745
-2.37344
-1.332
-0.91044
-0.661206
-0.478902
-0.333924
-0.209341
-0.0957218
0.0122961
0.118612
0.226884
0.341366
0.468224
0.618493
0.813645
1.0956
1.5852
2.72636
5.07545
)
;

boundaryField
{
    movingWall
    {
        type            zeroGradient;
    }
    fixedWalls
    {
        type            zeroGradient;
    }
    frontAndBack
    {
        type            empty;
    }
}


// ************************************************************************* //
