/*--------------------------------*- C++ -*----------------------------------*\
  =========                 |
  \\      /  F ield         | OpenFOAM: The Open Source CFD Toolbox
   \\    /   O peration     | Website:  https://openfoam.org
    \\  /    A nd           | Version:  6
     \\/     M anipulation  |
\*---------------------------------------------------------------------------*/
FoamFile
{
    version     2.0;
    format      ascii;
    class       surfaceScalarField;
    location    "0.005";
    object      phi;
}
// * * * * * * * * * * * * * * * * * * * * * * * * * * * * * * * * * * * * * //

dimensions      [0 3 -1 0 0 0 0];

internalField   nonuniform List<scalar> 
760
(
-1.59515e-08
1.59513e-08
-7.52257e-08
5.92742e-08
-1.5503e-07
7.98044e-08
-2.37707e-07
8.26769e-08
-3.14592e-07
7.68849e-08
-3.81321e-07
6.67293e-08
-4.35393e-07
5.4072e-08
-4.75207e-07
3.98134e-08
-4.99703e-07
2.44968e-08
-5.08247e-07
8.54376e-09
-5.0059e-07
-7.65774e-09
-4.7687e-07
-2.372e-08
-4.3763e-07
-3.92391e-08
-3.83861e-07
-5.37691e-08
-3.17127e-07
-6.67346e-08
-2.39938e-07
-7.71885e-08
-1.56729e-07
-8.32092e-08
-7.6279e-08
-8.04501e-08
-1.61257e-08
-6.01533e-08
-1.61256e-08
-6.00848e-08
7.60361e-08
-1.90981e-07
1.90171e-07
-3.53758e-07
2.42581e-07
-5.2147e-07
2.50389e-07
-6.7807e-07
2.33485e-07
-8.14465e-07
2.03124e-07
-9.25194e-07
1.64802e-07
-1.00675e-06
1.21368e-07
-1.05685e-06
7.45962e-08
-1.07416e-06
2.58527e-08
-1.05818e-06
-2.36358e-08
-1.00923e-06
-7.26664e-08
-9.28495e-07
-1.19978e-07
-8.18127e-07
-1.64137e-07
-6.81586e-07
-2.03276e-07
-5.24356e-07
-2.34418e-07
-3.55649e-07
-2.51916e-07
-1.91714e-07
-2.44386e-07
-6.00272e-08
-1.91839e-07
-7.6153e-08
-8.4386e-08
1.60422e-07
-2.57508e-07
3.63293e-07
-4.66895e-07
4.51968e-07
-6.80277e-07
4.63771e-07
-8.78748e-07
4.31955e-07
-1.05132e-06
3.75693e-07
-1.19126e-06
3.04742e-07
-1.29422e-06
2.24333e-07
-1.35741e-06
1.37784e-07
-1.3792e-06
4.76385e-08
-1.35898e-06
-4.38512e-08
-1.29715e-06
-1.34494e-07
-1.19515e-06
-2.21982e-07
-1.05563e-06
-3.03655e-07
-8.82884e-07
-3.76022e-07
-6.83683e-07
-4.3362e-07
-4.69186e-07
-4.66414e-07
-2.58616e-07
-4.54955e-07
-8.47308e-08
-3.65725e-07
-1.60884e-07
-9.79278e-08
2.5835e-07
-2.98826e-07
5.64191e-07
-5.39902e-07
6.93045e-07
-7.83814e-07
7.07683e-07
-1.00952e-06
6.57659e-07
-1.20502e-06
5.71199e-07
-1.3631e-06
4.62819e-07
-1.47916e-06
3.40398e-07
-1.55031e-06
2.08934e-07
-1.57489e-06
7.22121e-08
-1.55226e-06
-6.64754e-08
-1.48281e-06
-2.0395e-07
-1.36795e-06
-3.36837e-07
-1.21043e-06
-4.6118e-07
-1.01474e-06
-5.71713e-07
-7.88159e-07
-6.60198e-07
-5.42892e-07
-7.11681e-07
-3.0036e-07
-6.97487e-07
-9.83944e-08
-5.6769e-07
-2.59278e-07
-1.09378e-07
3.67727e-07
-3.35313e-07
7.90127e-07
-6.0583e-07
9.63562e-07
-8.78158e-07
9.80011e-07
-1.12879e-06
9.08296e-07
-1.3448e-06
7.87204e-07
-1.5187e-06
6.36715e-07
-1.64597e-06
4.67669e-07
-1.72388e-06
2.86849e-07
-1.75092e-06
9.92476e-08
-1.72648e-06
-9.09112e-08
-1.65084e-06
-2.79592e-07
-1.52522e-06
-4.62458e-07
-1.35212e-06
-6.34282e-07
-1.13592e-06
-7.87905e-07
-8.84161e-07
-9.11962e-07
-6.10027e-07
-9.85816e-07
-3.37516e-07
-9.69998e-07
-1.10034e-07
-7.95172e-07
-3.69312e-07
-1.23072e-07
4.90799e-07
-3.78287e-07
1.04534e-06
-6.83211e-07
1.26849e-06
-9.88574e-07
1.28537e-06
-1.26778e-06
1.1875e-06
-1.50679e-06
1.02622e-06
-1.69806e-06
8.27976e-07
-1.8374e-06
6.07017e-07
-1.92255e-06
3.71998e-07
-1.9523e-06
1.28999e-07
-1.92615e-06
-1.17063e-07
-1.84418e-06
-3.61569e-07
-1.70717e-06
-5.9946e-07
-1.51711e-06
-8.24351e-07
-1.27793e-06
-1.02708e-06
-9.9722e-07
-1.19267e-06
-6.89336e-07
-1.2937e-06
-3.81544e-07
-1.27779e-06
-1.24031e-07
-1.05268e-06
-4.93343e-07
-1.41197e-07
6.31996e-07
-4.34105e-07
1.33825e-06
-7.82657e-07
1.61704e-06
-1.12922e-06
1.63193e-06
-1.4433e-06
1.50159e-06
-1.70971e-06
1.29263e-06
-1.92113e-06
1.03939e-06
-2.07419e-06
7.60081e-07
-2.16747e-06
4.65273e-07
-2.20035e-06
1.6188e-07
-2.17251e-06
-1.44906e-07
-2.08371e-06
-4.50363e-07
-1.93404e-06
-7.49135e-07
-1.72444e-06
-1.03394e-06
-1.45796e-06
-1.29356e-06
-1.14186e-06
-1.50877e-06
-7.91732e-07
-1.64383e-06
-4.38982e-07
-1.63054e-06
-1.42618e-07
-1.34905e-06
-6.35961e-07
-1.65466e-07
7.97462e-07
-5.07863e-07
1.68065e-06
-9.12503e-07
2.02168e-06
-1.31066e-06
2.03009e-06
-1.66706e-06
1.85799e-06
-1.96556e-06
1.59112e-06
-2.19973e-06
1.27357e-06
-2.36778e-06
9.28138e-07
-2.46979e-06
5.67274e-07
-2.50614e-06
1.98232e-07
-2.47682e-06
-1.74225e-07
-2.38114e-06
-5.4604e-07
-2.21799e-06
-9.12283e-07
-1.98664e-06
-1.2653e-06
-1.68834e-06
-1.59187e-06
-1.32928e-06
-1.86782e-06
-9.26069e-07
-2.04705e-06
-5.15238e-07
-2.04137e-06
-1.67607e-07
-1.69668e-06
-8.03568e-07
-1.98081e-07
9.95543e-07
-6.05796e-07
2.08836e-06
-1.08244e-06
2.49833e-06
-1.5444e-06
2.49205e-06
-1.95077e-06
2.26436e-06
-2.28517e-06
1.92552e-06
-2.54339e-06
1.53178e-06
-2.72647e-06
1.11122e-06
-2.83695e-06
6.77754e-07
-2.87685e-06
2.38137e-07
-2.84668e-06
-2.04396e-07
-2.74508e-06
-6.47645e-07
-2.56911e-06
-1.08825e-06
-2.31528e-06
-1.51913e-06
-1.98167e-06
-1.92548e-06
-1.57197e-06
-2.27752e-06
-1.10292e-06
-2.51609e-06
-6.17125e-07
-2.52716e-06
-2.01391e-07
-2.11241e-06
-1.00496e-06
-2.42611e-07
1.23815e-06
-7.37375e-07
2.58313e-06
-1.30629e-06
3.06725e-06
-1.84574e-06
3.03149e-06
-2.30881e-06
2.72743e-06
-2.68066e-06
2.29737e-06
-2.96156e-06
1.81268e-06
-3.15738e-06
1.30704e-06
-3.27457e-06
7.94949e-07
-3.31763e-06
2.81198e-07
-3.28787e-06
-2.34158e-07
-3.18301e-06
-7.52506e-07
-2.99745e-06
-1.27381e-06
-2.72343e-06
-1.79315e-06
-2.35366e-06
-2.29525e-06
-1.88677e-06
-2.74441e-06
-1.33759e-06
-3.06528e-06
-7.55147e-07
-3.1096e-06
-2.47919e-07
-2.61964e-06
-1.25288e-06
-3.05363e-07
1.54352e-06
-9.18057e-07
3.19582e-06
-1.60502e-06
3.75421e-06
-2.23618e-06
3.66265e-06
-2.75965e-06
3.2509e-06
-3.16588e-06
2.7036e-06
-3.46343e-06
2.11023e-06
-3.66593e-06
1.50953e-06
-3.78567e-06
9.14694e-07
-3.83069e-06
3.2622e-07
-3.8035e-06
-2.61353e-07
-3.70063e-06
-8.55368e-07
-3.51285e-06
-1.4616e-06
-3.22611e-06
-2.07989e-06
-2.82458e-06
-2.69677e-06
-2.29751e-06
-3.27148e-06
-1.65349e-06
-3.7093e-06
-9.46635e-07
-3.81646e-06
-3.14245e-07
-3.25203e-06
-1.56712e-06
-3.97917e-07
1.94143e-06
-1.17356e-06
3.97146e-06
-2.0104e-06
4.59105e-06
-2.74513e-06
4.39738e-06
-3.32553e-06
3.8313e-06
-3.75452e-06
3.13259e-06
-4.05496e-06
2.41067e-06
-4.25222e-06
1.7068e-06
-4.36676e-06
1.02923e-06
-4.41129e-06
3.7075e-07
-4.38995e-06
-2.82687e-07
-4.29797e-06
-9.47355e-07
-4.12145e-06
-1.63811e-06
-3.83789e-06
-2.36345e-06
-3.41862e-06
-3.11604e-06
-2.83675e-06
-3.85335e-06
-2.08623e-06
-4.45982e-06
-1.22064e-06
-4.68204e-06
-4.13469e-07
-4.05921e-06
-1.98059e-06
-5.41821e-07
2.48326e-06
-1.54584e-06
4.97548e-06
-2.56767e-06
5.61288e-06
-3.40787e-06
5.23758e-06
-4.02641e-06
4.44984e-06
-4.45148e-06
3.55766e-06
-4.72889e-06
2.68808e-06
-4.90049e-06
1.8784e-06
-4.997e-06
1.12574e-06
-5.03671e-06
4.10461e-07
-5.02575e-06
-2.93651e-07
-4.95809e-06
-1.01501e-06
-4.81483e-06
-1.78137e-06
-4.56311e-06
-2.61517e-06
-4.15666e-06
-3.52249e-06
-3.54284e-06
-4.46716e-06
-2.68618e-06
-5.31649e-06
-1.6246e-06
-5.74362e-06
-5.70155e-07
-5.11365e-06
-2.55075e-06
-7.76038e-07
3.25929e-06
-2.09752e-06
6.29696e-06
-3.32916e-06
6.84453e-06
-4.24858e-06
6.15699e-06
-4.85602e-06
5.05728e-06
-5.22535e-06
3.92698e-06
-5.4359e-06
2.89864e-06
-5.54993e-06
1.99243e-06
-5.60912e-06
1.18492e-06
-5.63703e-06
4.38377e-07
-5.64178e-06
-2.88904e-07
-5.61675e-06
-1.04004e-06
-5.539e-06
-1.85912e-06
-5.36544e-06
-2.78874e-06
-5.02878e-06
-3.85915e-06
-4.43956e-06
-5.05639e-06
-3.50968e-06
-6.24637e-06
-2.22829e-06
-7.02501e-06
-8.28572e-07
-6.51337e-06
-3.37932e-06
-1.16357e-06
4.42286e-06
-2.89882e-06
8.03221e-06
-4.31265e-06
8.25836e-06
-5.21798e-06
7.06232e-06
-5.70909e-06
5.54839e-06
-5.93225e-06
4.15015e-06
-6.00851e-06
2.97489e-06
-6.01975e-06
2.00366e-06
-6.01524e-06
1.18042e-06
-6.02106e-06
4.44195e-07
-6.04636e-06
-2.636e-07
-6.08541e-06
-1.001e-06
-6.11487e-06
-1.82966e-06
-6.0862e-06
-2.8174e-06
-5.91369e-06
-4.03166e-06
-5.46404e-06
-5.50604e-06
-4.56804e-06
-7.14237e-06
-3.10473e-06
-8.48831e-06
-1.25826e-06
-8.35985e-06
-4.63758e-06
-1.77614e-06
6.199e-06
-3.94427e-06
1.02003e-05
-5.35671e-06
9.67081e-06
-6.01737e-06
7.72297e-06
-6.19675e-06
5.72778e-06
-6.13352e-06
4.08691e-06
-5.98411e-06
2.82549e-06
-5.83713e-06
1.85668e-06
-5.73815e-06
1.08143e-06
-5.70859e-06
4.1464e-07
-5.75621e-06
-2.15988e-07
-5.87834e-06
-8.78857e-07
-6.05874e-06
-1.64926e-06
-6.25628e-06
-2.61986e-06
-6.3832e-06
-3.90475e-06
-6.27366e-06
-5.61558e-06
-5.66072e-06
-7.75531e-06
-4.2262e-06
-9.92284e-06
-1.92975e-06
-1.06563e-05
-6.56733e-06
-2.59414e-06
8.79313e-06
-4.87568e-06
1.24819e-05
-5.74481e-06
1.05399e-05
-5.70236e-06
7.68052e-06
-5.26633e-06
5.29175e-06
-4.73958e-06
3.56017e-06
-4.26941e-06
2.35532e-06
-3.91575e-06
1.50302e-06
-3.69796e-06
8.63649e-07
-3.62077e-06
3.37445e-07
-3.6861e-06
-1.50659e-07
-3.89684e-06
-6.68119e-07
-4.25435e-06
-1.29175e-06
-4.74735e-06
-2.12686e-06
-5.32458e-06
-3.32751e-06
-5.84106e-06
-5.0991e-06
-5.97446e-06
-7.62191e-06
-5.15e-06
-1.07473e-05
-2.78702e-06
-1.30193e-05
-9.35435e-06
-3.18077e-06
1.19739e-05
-4.29184e-06
1.3593e-05
-3.45109e-06
9.69919e-06
-2.01904e-06
6.24847e-06
-6.46821e-07
3.91953e-06
4.62116e-07
2.45123e-06
1.27983e-06
1.5376e-06
1.83463e-06
9.48222e-07
2.16194e-06
5.36347e-07
2.28628e-06
2.13099e-07
2.21602e-06
-8.0398e-08
1.9418e-06
-3.93896e-07
1.43609e-06
-7.86039e-07
6.55963e-07
-1.34674e-06
-4.41328e-07
-2.23022e-06
-1.84686e-06
-3.69357e-06
-3.36621e-06
-6.10256e-06
-4.32305e-06
-9.79045e-06
-3.27725e-06
-1.40651e-05
-1.26316e-05
-1.45844e-06
1.34323e-05
1.86799e-06
1.02665e-05
5.93587e-06
5.63131e-06
9.12562e-06
3.05872e-06
1.13472e-05
1.69797e-06
1.28319e-05
9.66556e-07
1.38027e-05
5.66801e-07
1.44154e-05
3.35427e-07
1.47656e-05
1.86209e-07
1.49039e-05
7.47771e-08
1.48478e-05
-2.42586e-08
1.45845e-05
-1.30678e-07
1.40672e-05
-2.68674e-07
1.32007e-05
-4.80261e-07
1.18207e-05
-8.5017e-07
9.67944e-06
-1.55236e-06
6.50845e-06
-2.93156e-06
2.36195e-06
-5.64396e-06
-1.1763e-06
-1.05268e-05
-1.38079e-05
1.34323e-05
2.36989e-05
2.93302e-05
3.23889e-05
3.40869e-05
3.50534e-05
3.56202e-05
3.59557e-05
3.61419e-05
3.62166e-05
3.61924e-05
3.60617e-05
3.5793e-05
3.53128e-05
3.44626e-05
3.29102e-05
2.99787e-05
2.43347e-05
1.38079e-05
)
;

boundaryField
{
    movingWall
    {
        type            calculated;
        value           uniform 0;
    }
    fixedWalls
    {
        type            calculated;
        value           uniform 0;
    }
    frontAndBack
    {
        type            empty;
        value           nonuniform 0();
    }
}


// ************************************************************************* //
