/*--------------------------------*- C++ -*----------------------------------*\
  =========                 |
  \\      /  F ield         | OpenFOAM: The Open Source CFD Toolbox
   \\    /   O peration     | Website:  https://openfoam.org
    \\  /    A nd           | Version:  6
     \\/     M anipulation  |
\*---------------------------------------------------------------------------*/
FoamFile
{
    version     2.0;
    format      ascii;
    class       volVectorField;
    location    "0.005";
    object      U;
}
// * * * * * * * * * * * * * * * * * * * * * * * * * * * * * * * * * * * * * //

dimensions      [0 1 -1 0 0 0 0];

internalField   nonuniform List<vector> 
400
(
(-0.0001105 9.11606e-05 0)
(-0.00081585 0.00046055 0)
(-0.00225942 0.000647796 0)
(-0.00393162 0.000675852 0)
(-0.00555368 0.000627952 0)
(-0.00700302 0.000544219 0)
(-0.00821897 0.000440678 0)
(-0.00916305 0.000324497 0)
(-0.00980947 0.000199873 0)
(-0.0101416 7.00921e-05 0)
(-0.0101506 -6.17584e-05 0)
(-0.00983546 -0.000192554 0)
(-0.00920288 -0.000319058 0)
(-0.00826779 -0.000437783 0)
(-0.00705493 -0.000544297 0)
(-0.00560283 -0.000631123 0)
(-0.00397276 -0.000682062 0)
(-0.00228326 -0.000657766 0)
(-0.000825099 -0.0004787 0)
(-0.000102785 -0.00010179 0)
(-0.0004877 0.000808079 0)
(-0.00231079 0.0022603 0)
(-0.00535631 0.00295123 0)
(-0.00877095 0.00305666 0)
(-0.0120684 0.00284915 0)
(-0.0150268 0.00247706 0)
(-0.0175162 0.00200917 0)
(-0.0194511 0.00147986 0)
(-0.0207753 0.00091021 0)
(-0.0214532 0.000316519 0)
(-0.0214667 -0.000286393 0)
(-0.0208143 -0.000883868 0)
(-0.0195105 -0.00146059 0)
(-0.0175877 -0.00199941 0)
(-0.0151005 -0.00247811 0)
(-0.0121343 -0.00286077 0)
(-0.00882017 -0.00307692 0)
(-0.00538083 -0.0029774 0)
(-0.00230952 -0.00229174 0)
(-0.000476572 -0.000813115 0)
(-0.000690242 0.00228273 0)
(-0.0031602 0.00536907 0)
(-0.0071349 0.00675127 0)
(-0.0115039 0.0069493 0)
(-0.015689 0.00647918 0)
(-0.0194346 0.00563807 0)
(-0.0225827 0.00457509 0)
(-0.0250271 0.00336921 0)
(-0.0266981 0.0020702 0)
(-0.0275526 0.000716401 0)
(-0.0275686 -0.000657964 0)
(-0.0267442 -0.00201945 0)
(-0.0250971 -0.00333294 0)
(-0.022667 -0.0045583 0)
(-0.0195212 -0.0056432 0)
(-0.015766 -0.00650519 0)
(-0.0115613 -0.00699099 0)
(-0.00716702 -0.00679934 0)
(-0.00317042 -0.00541052 0)
(-0.000688661 -0.00229172 0)
(-0.000797223 0.00413872 0)
(-0.00366747 0.00916532 0)
(-0.00826712 0.0113191 0)
(-0.0132806 0.0115864 0)
(-0.0180511 0.0107823 0)
(-0.0223015 0.00937407 0)
(-0.0258621 0.0076015 0)
(-0.0286196 0.00559433 0)
(-0.0305016 0.00343515 0)
(-0.0314637 0.0011872 0)
(-0.0314835 -0.00109388 0)
(-0.0305588 -0.00335412 0)
(-0.0287068 -0.00553652 0)
(-0.0259674 -0.00757502 0)
(-0.0224103 -0.00938264 0)
(-0.0181486 -0.0108238 0)
(-0.0133544 -0.0116518 0)
(-0.0083107 -0.0113919 0)
(-0.00368482 -0.00922248 0)
(-0.00079923 -0.00415068 0)
(-0.00088568 0.00621184 0)
(-0.0041077 0.0134309 0)
(-0.00928047 0.0164302 0)
(-0.0148947 0.0167446 0)
(-0.0202065 0.0155438 0)
(-0.0249136 0.0134898 0)
(-0.0288375 0.0109235 0)
(-0.0318647 0.00803044 0)
(-0.0339257 0.00492787 0)
(-0.0349795 0.0017039 0)
(-0.035006 -0.00156557 0)
(-0.0340019 -0.00480753 0)
(-0.0319814 -0.00794417 0)
(-0.0289794 -0.0108834 0)
(-0.0250615 -0.0135014 0)
(-0.0203407 -0.0156042 0)
(-0.0149978 -0.01684 0)
(-0.00934314 -0.0165359 0)
(-0.00413368 -0.0135134 0)
(-0.000890029 -0.00623534 0)
(-0.000993825 0.00852298 0)
(-0.00463043 0.0182135 0)
(-0.0104724 0.0221513 0)
(-0.0167875 0.0224909 0)
(-0.0227247 0.0208178 0)
(-0.0279494 0.0180225 0)
(-0.0322761 0.0145636 0)
(-0.0355957 0.0106897 0)
(-0.0378479 0.00655482 0)
(-0.0390003 0.00227032 0)
(-0.0390369 -0.00207094 0)
(-0.0379537 -0.00638082 0)
(-0.0357583 -0.010564 0)
(-0.0324752 -0.0145036 0)
(-0.0281591 -0.018037 0)
(-0.0229171 -0.0209032 0)
(-0.0169375 -0.0226278 0)
(-0.0105652 -0.0223036 0)
(-0.0046692 -0.018333 0)
(-0.0010008 -0.00856243 0)
(-0.00113989 0.0111456 0)
(-0.00531672 0.0236521 0)
(-0.0120132 0.0286389 0)
(-0.0192103 0.028969 0)
(-0.0259194 0.0267197 0)
(-0.0317677 0.0230558 0)
(-0.036567 0.0185777 0)
(-0.0402213 0.0136068 0)
(-0.0426885 0.00833544 0)
(-0.0439516 0.00289501 0)
(-0.0440029 -0.00261101 0)
(-0.0428369 -0.00808653 0)
(-0.0404506 -0.013425 0)
(-0.0368501 -0.0184883 0)
(-0.0320691 -0.0230726 0)
(-0.0261994 -0.0268391 0)
(-0.0194318 -0.0291645 0)
(-0.0121522 -0.028859 0)
(-0.00537481 -0.0238268 0)
(-0.00115049 -0.0112079 0)
(-0.00133817 0.014185 0)
(-0.00623165 0.0299483 0)
(-0.0140398 0.0361101 0)
(-0.0223574 0.0363666 0)
(-0.030018 0.0333908 0)
(-0.0366087 0.0286852 0)
(-0.0419499 0.0230241 0)
(-0.0459743 0.0168144 0)
(-0.0486729 0.010287 0)
(-0.050055 0.00358625 0)
(-0.0501264 -0.0031843 0)
(-0.0488805 -0.00993267 0)
(-0.0462972 -0.016552 0)
(-0.0423526 -0.02289 0)
(-0.037043 -0.0287015 0)
(-0.0304276 -0.033556 0)
(-0.0226866 -0.036646 0)
(-0.0142493 -0.0364304 0)
(-0.00631967 -0.0302063 0)
(-0.00135422 -0.0142815 0)
(-0.00160794 0.0177828 0)
(-0.00745772 0.0373732 0)
(-0.016716 0.0448462 0)
(-0.0264481 0.044911 0)
(-0.0352586 0.0409858 0)
(-0.0427011 0.0350009 0)
(-0.0486294 0.0279469 0)
(-0.0530321 0.0203298 0)
(-0.0559561 0.0124157 0)
(-0.0574536 0.00434937 0)
(-0.0575524 -0.00378308 0)
(-0.0562443 -0.0119128 0)
(-0.0534838 -0.0199505 0)
(-0.0491999 -0.0277436 0)
(-0.0433263 -0.0350091 0)
(-0.0358594 -0.0412104 0)
(-0.0269409 -0.0453089 0)
(-0.0170359 -0.0453147 0)
(-0.00759384 -0.0377584 0)
(-0.0016329 -0.0179315 0)
(-0.00198211 0.0221349 0)
(-0.00912539 0.046293 0)
(-0.0202845 0.0552049 0)
(-0.0317861 0.0548635 0)
(-0.0419465 0.0496555 0)
(-0.0503133 0.0420647 0)
(-0.0568206 0.0333528 0)
(-0.0615574 0.0241363 0)
(-0.0646614 0.0147052 0)
(-0.0662502 0.00518283 0)
(-0.066385 -0.00438913 0)
(-0.0650564 -0.0139935 0)
(-0.062183 -0.023587 0)
(-0.0576231 -0.0330406 0)
(-0.0512107 -0.0420472 0)
(-0.0428297 -0.049952 0)
(-0.0325302 -0.0554261 0)
(-0.0207811 -0.0558924 0)
(-0.00934206 -0.0468743 0)
(-0.00202279 -0.0223656 0)
(-0.00252195 0.0275302 0)
(-0.0114576 0.0572187 0)
(-0.0251281 0.067643 0)
(-0.0388157 0.0665108 0)
(-0.050493 0.059517 0)
(-0.0597719 0.0498749 0)
(-0.0667518 0.039179 0)
(-0.071691 0.0281581 0)
(-0.0748662 0.0171007 0)
(-0.0764896 0.00607214 0)
(-0.0766696 -0.00496968 0)
(-0.0753974 -0.0161 0)
(-0.0725435 -0.0273635 0)
(-0.0678672 -0.0386952 0)
(-0.0610518 -0.0497945 0)
(-0.0517918 -0.0598901 0)
(-0.039949 -0.067296 0)
(-0.0259138 -0.0686533 0)
(-0.0118145 -0.0581066 0)
(-0.00259216 -0.0278947 0)
(-0.00334669 0.0344267 0)
(-0.0148469 0.0708885 0)
(-0.0318576 0.0827387 0)
(-0.0481785 0.0801335 0)
(-0.0614276 0.0705974 0)
(-0.071436 0.058306 0)
(-0.0786125 0.0452431 0)
(-0.0834839 0.0322254 0)
(-0.0865265 0.019488 0)
(-0.088079 0.00698211 0)
(-0.0883121 -0.0054723 0)
(-0.0872202 -0.0180971 0)
(-0.0846163 -0.0310824 0)
(-0.0801312 -0.0444914 0)
(-0.0732359 -0.0580917 0)
(-0.0633265 -0.0710295 0)
(-0.0499117 -0.0812052 0)
(-0.0331219 -0.0842212 0)
(-0.0154559 -0.0722636 0)
(-0.00347537 -0.0350198 0)
(-0.00469249 0.0436013 0)
(-0.0199835 0.0883893 0)
(-0.0414094 0.101188 0)
(-0.0607199 0.0959181 0)
(-0.075311 0.0827213 0)
(-0.0855446 0.0670102 0)
(-0.0923629 0.0511704 0)
(-0.0966895 0.036027 0)
(-0.0992614 0.0216675 0)
(-0.100569 0.00784758 0)
(-0.100857 -0.00581915 0)
(-0.100125 -0.0197654 0)
(-0.0981293 -0.0343998 0)
(-0.094355 -0.0500054 0)
(-0.0880021 -0.0665304 0)
(-0.0780329 -0.0831402 0)
(-0.0633487 -0.0973235 0)
(-0.0434568 -0.103345 0)
(-0.0210524 -0.0905483 0)
(-0.00494094 -0.0446056 0)
(-0.00701583 0.0564261 0)
(-0.0280188 0.111287 0)
(-0.0550403 0.123691 0)
(-0.0772438 0.113733 0)
(-0.0923097 0.0952936 0)
(-0.101689 0.0752545 0)
(-0.107164 0.0562905 0)
(-0.110181 0.0390517 0)
(-0.111771 0.0233238 0)
(-0.112574 0.00855937 0)
(-0.112897 -0.00590807 0)
(-0.112758 -0.0207853 0)
(-0.111872 -0.0367778 0)
(-0.109599 -0.0545077 0)
(-0.104849 -0.0742835 0)
(-0.0960287 -0.0955163 0)
(-0.0810965 -0.115441 0)
(-0.0582967 -0.126752 0)
(-0.0299049 -0.114695 0)
(-0.00750709 -0.0581944 0)
(-0.0111131 0.0752943 0)
(-0.0405767 0.141592 0)
(-0.0737738 0.150501 0)
(-0.0974256 0.132624 0)
(-0.110803 0.106914 0)
(-0.117301 0.0816826 0)
(-0.119846 0.0595119 0)
(-0.120441 0.0405299 0)
(-0.120349 0.0239974 0)
(-0.120288 0.00894506 0)
(-0.120592 -0.00563085 0)
(-0.121297 -0.0207486 0)
(-0.122133 -0.0374677 0)
(-0.122425 -0.0568754 0)
(-0.12089 -0.0798899 0)
(-0.11538 -0.106578 0)
(-0.102608 -0.134406 0)
(-0.0786232 -0.154607 0)
(-0.0437721 -0.146873 0)
(-0.0120559 -0.0784629 0)
(-0.0180136 0.104228 0)
(-0.0588447 0.181087 0)
(-0.096028 0.180164 0)
(-0.116475 0.149766 0)
(-0.123703 0.114746 0)
(-0.123958 0.0840179 0)
(-0.121313 0.0592205 0)
(-0.118076 0.0394192 0)
(-0.115481 0.0230904 0)
(-0.114138 0.00875954 0)
(-0.114309 -0.00491143 0)
(-0.116045 -0.0192209 0)
(-0.119186 -0.0355715 0)
(-0.123227 -0.0555884 0)
(-0.127003 -0.0810655 0)
(-0.128145 -0.113326 0)
(-0.122212 -0.151067 0)
(-0.102181 -0.185124 0)
(-0.063627 -0.18888 0)
(-0.0196215 -0.109851 0)
(-0.0277363 0.149749 0)
(-0.0797011 0.228786 0)
(-0.110758 0.206309 0)
(-0.117141 0.158369 0)
(-0.110603 0.113575 0)
(-0.100031 0.0788021 0)
(-0.089661 0.0533157 0)
(-0.0812797 0.0345193 0)
(-0.0755266 0.0199597 0)
(-0.0725689 0.00771515 0)
(-0.0724428 -0.00375443 0)
(-0.075194 -0.0158722 0)
(-0.0808912 -0.0302323 0)
(-0.0895108 -0.048903 0)
(-0.100596 -0.0746558 0)
(-0.112495 -0.110669 0)
(-0.120807 -0.158449 0)
(-0.115972 -0.211461 0)
(-0.0849787 -0.239433 0)
(-0.029733 -0.159392 0)
(-0.0336343 0.217427 0)
(-0.0843057 0.272017 0)
(-0.0823768 0.21154 0)
(-0.0553514 0.14539 0)
(-0.025699 0.0957012 0)
(-0.0005824 0.0620747 0)
(0.0186187 0.0399577 0)
(0.0321945 0.0250413 0)
(0.040884 0.0142668 0)
(0.0453279 0.00562657 0)
(0.0458669 -0.00229626 0)
(0.0424938 -0.0107386 0)
(0.0348352 -0.0211377 0)
(0.0221514 -0.0355836 0)
(0.00348108 -0.0573958 0)
(-0.021805 -0.091545 0)
(-0.0525887 -0.143804 0)
(-0.081672 -0.215731 0)
(-0.085695 -0.284124 0)
(-0.033759 -0.231396 0)
(0.00505801 0.273221 0)
(-0.00356369 0.263783 0)
(0.0754752 0.167464 0)
(0.154211 0.0989144 0)
(0.20843 0.0580977 0)
(0.244312 0.034516 0)
(0.268073 0.0208489 0)
(0.283435 0.0125547 0)
(0.292782 0.00703275 0)
(0.297529 0.00283973 0)
(0.298336 -0.000907892 0)
(0.295248 -0.00492396 0)
(0.287696 -0.0100671 0)
(0.274312 -0.0177485 0)
(0.252626 -0.030618 0)
(0.218622 -0.0536449 0)
(0.165603 -0.0954041 0)
(0.0865699 -0.168046 0)
(0.00572073 -0.270855 0)
(0.0126207 -0.283408 0)
(0.300778 0.145132 0)
(0.389677 0.120393 0)
(0.529366 0.0661491 0)
(0.621826 0.0340987 0)
(0.668585 0.0177528 0)
(0.693428 0.00950767 0)
(0.707858 0.00529645 0)
(0.716468 0.00302692 0)
(0.721476 0.00165938 0)
(0.723991 0.000691017 0)
(0.724481 -0.000143464 0)
(0.722992 -0.0010359 0)
(0.71916 -0.00221977 0)
(0.712007 -0.00412309 0)
(0.699443 -0.0076695 0)
(0.677012 -0.0148925 0)
(0.633484 -0.03013 0)
(0.54376 -0.0619124 0)
(0.401965 -0.118391 0)
(0.308185 -0.146356 0)
)
;

boundaryField
{
    movingWall
    {
        type            fixedValue;
        value           uniform (1 0 0);
    }
    fixedWalls
    {
        type            noSlip;
    }
    frontAndBack
    {
        type            empty;
    }
}


// ************************************************************************* //
