/*--------------------------------*- C++ -*----------------------------------*\
  =========                 |
  \\      /  F ield         | OpenFOAM: The Open Source CFD Toolbox
   \\    /   O peration     | Website:  https://openfoam.org
    \\  /    A nd           | Version:  6
     \\/     M anipulation  |
\*---------------------------------------------------------------------------*/
FoamFile
{
    version     2.0;
    format      ascii;
    class       surfaceScalarField;
    location    "0.025";
    object      phi;
}
// * * * * * * * * * * * * * * * * * * * * * * * * * * * * * * * * * * * * * //

dimensions      [0 3 -1 0 0 0 0];

internalField   nonuniform List<scalar> 
760
(
1.47701e-08
-1.47712e-08
-2.07437e-08
3.55131e-08
-1.12516e-07
9.17727e-08
-2.44369e-07
1.31853e-07
-3.96229e-07
1.51861e-07
-5.48758e-07
1.52529e-07
-6.85223e-07
1.36465e-07
-7.92362e-07
1.07139e-07
-8.60644e-07
6.8282e-08
-8.84305e-07
2.36606e-08
-8.61332e-07
-2.29731e-08
-7.93487e-07
-6.78445e-08
-6.86378e-07
-1.07109e-07
-5.49533e-07
-1.36846e-07
-3.96378e-07
-1.53155e-07
-2.43918e-07
-1.5246e-07
-1.11764e-07
-1.32154e-07
-2.01131e-08
-9.16507e-08
1.50083e-08
-3.51213e-08
1.50086e-08
-3.28465e-08
1.80762e-08
-1.77266e-07
1.79933e-07
-4.30301e-07
3.44807e-07
-7.61859e-07
4.63412e-07
-1.13185e-06
5.21856e-07
-1.49906e-06
5.19734e-07
-1.82617e-06
4.63573e-07
-2.08261e-06
3.63577e-07
-2.24592e-06
2.31597e-07
-2.30238e-06
8.01155e-08
-2.2472e-06
-7.81504e-08
-2.08471e-06
-2.30339e-07
-1.82834e-06
-3.63474e-07
-1.50055e-06
-4.64639e-07
-1.13219e-06
-5.21515e-07
-7.6106e-07
-5.23588e-07
-4.28884e-07
-4.6433e-07
-1.75994e-07
-3.4454e-07
-3.22789e-08
-1.78836e-07
-1.72701e-08
-9.02563e-08
1.08333e-07
-3.52715e-07
4.42393e-07
-7.59812e-07
7.51905e-07
-1.2655e-06
9.69097e-07
-1.81473e-06
1.07109e-06
-2.35181e-06
1.05681e-06
-2.82622e-06
9.37987e-07
-3.19634e-06
7.3369e-07
-3.43141e-06
4.66665e-07
-3.51256e-06
1.6127e-07
-3.43325e-06
-1.57463e-07
-3.19942e-06
-4.64169e-07
-2.82954e-06
-7.33352e-07
-2.35431e-06
-9.39867e-07
-1.81571e-06
-1.06012e-06
-1.26487e-06
-1.07443e-06
-7.58165e-07
-9.7103e-07
-3.51058e-07
-7.51647e-07
-8.94456e-08
-4.40449e-07
-1.06716e-07
-1.42727e-07
2.5106e-07
-5.20775e-07
8.20441e-07
-1.07752e-06
1.30865e-06
-1.74673e-06
1.63831e-06
-2.45804e-06
1.7824e-06
-3.14359e-06
1.74236e-06
-3.74327e-06
1.53767e-06
-4.20814e-06
1.19857e-06
-4.50234e-06
7.60867e-07
-4.60393e-06
2.62855e-07
-4.50526e-06
-2.56136e-07
-4.21316e-06
-7.5627e-07
-3.749e-06
-1.19751e-06
-3.14853e-06
-1.54034e-06
-2.46102e-06
-1.74762e-06
-1.74738e-06
-1.78808e-06
-1.07637e-06
-1.64203e-06
-5.19077e-07
-1.30894e-06
-1.41752e-07
-8.17774e-07
-2.48468e-07
-1.91059e-07
4.42119e-07
-6.8159e-07
1.31097e-06
-1.38549e-06
2.01255e-06
-2.21363e-06
2.46644e-06
-3.07892e-06
2.6477e-06
-3.90187e-06
2.5653e-06
-4.61459e-06
2.25039e-06
-5.16328e-06
1.74726e-06
-5.5092e-06
1.10678e-06
-5.62888e-06
3.82537e-07
-5.51411e-06
-3.70905e-07
-5.17197e-06
-1.09842e-06
-4.62506e-06
-1.74442e-06
-3.91181e-06
-2.25359e-06
-3.08637e-06
-2.57305e-06
-2.21757e-06
-2.65688e-06
-1.38621e-06
-2.47339e-06
-6.80537e-07
-2.01462e-06
-1.90096e-07
-1.30821e-06
-4.38564e-07
-2.38176e-07
6.80295e-07
-8.41094e-07
1.91389e-06
-1.6925e-06
2.86396e-06
-2.67819e-06
3.45213e-06
-3.69303e-06
3.66254e-06
-4.64601e-06
3.51829e-06
-5.46296e-06
3.06733e-06
-6.08723e-06
2.37154e-06
-6.47924e-06
1.49879e-06
-6.61542e-06
5.18716e-07
-6.48744e-06
-4.9889e-07
-6.102e-06
-1.48385e-06
-5.4814e-06
-2.36502e-06
-4.66463e-06
-3.07036e-06
-3.70856e-06
-3.52913e-06
-2.6885e-06
-3.67693e-06
-1.69727e-06
-3.46463e-06
-8.4185e-07
-2.87004e-06
-2.37564e-07
-1.9125e-06
-6.76128e-07
-2.87099e-07
9.67395e-07
-1.00621e-06
2.633e-06
-2.00816e-06
3.8659e-06
-3.15104e-06
4.59501e-06
-4.31059e-06
4.82208e-06
-5.38496e-06
4.59266e-06
-6.29566e-06
3.97802e-06
-6.98577e-06
3.06166e-06
-7.41725e-06
1.93027e-06
-7.56804e-06
6.69507e-07
-7.43023e-06
-6.36695e-07
-7.0095e-06
-1.90458e-06
-6.32604e-06
-3.04848e-06
-5.41686e-06
-3.97955e-06
-4.33887e-06
-4.60712e-06
-3.17186e-06
-4.84394e-06
-2.02004e-06
-4.61645e-06
-1.0105e-06
-3.87957e-06
-2.87372e-07
-2.63563e-06
-9.63499e-07
-3.40664e-07
1.30806e-06
-1.18349e-06
3.47583e-06
-2.3405e-06
5.02291e-06
-3.63848e-06
5.89299e-06
-4.93336e-06
6.11696e-06
-6.11435e-06
5.77366e-06
-7.10194e-06
4.96562e-06
-7.84274e-06
3.80245e-06
-8.30344e-06
2.39097e-06
-8.46569e-06
8.31757e-07
-8.32274e-06
-7.79649e-07
-7.87839e-06
-2.34893e-06
-7.14848e-06
-3.77839e-06
-6.16461e-06
-4.96342e-06
-4.9798e-06
-5.79192e-06
-3.67482e-06
-6.14892e-06
-2.36338e-06
-5.9279e-06
-1.1936e-06
-5.04935e-06
-3.42578e-07
-3.48665e-06
-1.30608e-06
-4.01672e-07
1.70973e-06
-1.37886e-06
4.45302e-06
-2.69491e-06
6.33896e-06
-4.14038e-06
7.33846e-06
-5.55169e-06
7.52827e-06
-6.813e-06
7.03496e-06
-7.84932e-06
6.00194e-06
-8.61624e-06
4.56938e-06
-9.08974e-06
2.86447e-06
-9.25803e-06
1.00004e-06
-9.11651e-06
-9.21162e-07
-8.6662e-06
-2.79925e-06
-7.91562e-06
-4.52897e-06
-6.88636e-06
-5.99268e-06
-5.62174e-06
-7.05655e-06
-4.19766e-06
-7.57299e-06
-2.73329e-06
-7.39227e-06
-1.39761e-06
-6.38503e-06
-4.06215e-07
-4.47804e-06
-1.71229e-06
-4.73457e-07
2.18319e-06
-1.59819e-06
5.57775e-06
-3.07361e-06
7.81438e-06
-4.64807e-06
8.91292e-06
-6.14085e-06
9.02106e-06
-7.43819e-06
8.33231e-06
-8.47817e-06
7.04192e-06
-9.23315e-06
5.32435e-06
-9.69422e-06
3.32554e-06
-9.8598e-06
1.16561e-06
-9.72875e-06
-1.05221e-06
-9.29821e-06
-3.22978e-06
-8.56597e-06
-5.26121e-06
-7.53761e-06
-7.02103e-06
-6.23869e-06
-8.35547e-06
-4.73118e-06
-9.0805e-06
-3.13207e-06
-8.99138e-06
-1.62874e-06
-7.88836e-06
-4.81834e-07
-5.62495e-06
-2.19413e-06
-5.60901e-07
2.74409e-06
-1.8483e-06
6.86516e-06
-3.47493e-06
9.44101e-06
-5.14102e-06
1.0579e-05
-6.65545e-06
1.05355e-05
-7.91874e-06
9.59559e-06
-8.89449e-06
8.01768e-06
-9.58192e-06
6.01178e-06
-9.99422e-06
3.73784e-06
-1.0144e-05
1.31542e-06
-1.00352e-05
-1.16108e-06
-9.65994e-06
-3.60499e-06
-9.00176e-06
-5.9194e-06
-8.04333e-06
-7.97946e-06
-6.78202e-06
-9.61678e-06
-5.25274e-06
-1.06098e-05
-3.55718e-06
-1.06869e-05
-1.89379e-06
-9.55175e-06
-5.74484e-07
-6.94425e-06
-2.76861e-06
-6.72141e-07
3.41623e-06
-2.13807e-06
8.33108e-06
-3.8909e-06
1.11938e-05
-5.58038e-06
1.22685e-05
-7.02019e-06
1.19753e-05
-8.14478e-06
1.07202e-05
-8.96014e-06
8.83304e-06
-9.50405e-06
6.55569e-06
-9.81881e-06
4.0526e-06
-9.93489e-06
1.4315e-06
-9.86243e-06
-1.23354e-06
-9.58842e-06
-3.879e-06
-9.0789e-06
-6.42893e-06
-8.28713e-06
-8.77123e-06
-7.17045e-06
-1.07335e-05
-5.719e-06
-1.20612e-05
-3.99816e-06
-1.24078e-05
-2.20086e-06
-1.1349e-05
-6.92353e-07
-8.45276e-06
-3.46096e-06
-8.21317e-07
4.23755e-06
-2.4784e-06
9.98816e-06
-4.30035e-06
1.30158e-05
-5.89591e-06
1.3864e-05
-7.11406e-06
1.31934e-05
-7.95267e-06
1.15588e-05
-8.4805e-06
9.36087e-06
-8.78497e-06
6.86016e-06
-8.94223e-06
4.20986e-06
-9.00217e-06
1.49143e-06
-8.98184e-06
-1.25387e-06
-8.86334e-06
-3.9975e-06
-8.59477e-06
-6.69749e-06
-8.09601e-06
-9.27e-06
-7.27357e-06
-1.15559e-05
-6.0519e-06
-1.32829e-05
-4.42886e-06
-1.40308e-05
-2.55892e-06
-1.3219e-05
-8.49404e-07
-1.01623e-05
-4.31037e-06
-1.03241e-06
5.26995e-06
-2.87775e-06
1.18335e-05
-4.65093e-06
1.4789e-05
-5.95956e-06
1.51727e-05
-6.74328e-06
1.39772e-05
-7.10294e-06
1.19184e-05
-7.18973e-06
9.44766e-06
-7.1462e-06
6.81662e-06
-7.08083e-06
4.14449e-06
-7.06006e-06
1.47067e-06
-7.1069e-06
-1.20703e-06
-7.20045e-06
-3.90395e-06
-7.27485e-06
-6.62309e-06
-7.21933e-06
-9.32552e-06
-6.88521e-06
-1.189e-05
-6.1118e-06
-1.40563e-05
-4.78844e-06
-1.53542e-05
-2.97235e-06
-1.50351e-05
-1.06896e-06
-1.20657e-05
-5.37932e-06
-1.34124e-06
6.6112e-06
-3.32168e-06
1.38139e-05
-4.81531e-06
1.62826e-05
-5.53416e-06
1.58915e-05
-5.59709e-06
1.40401e-05
-5.25038e-06
1.15717e-05
-4.73595e-06
8.93323e-06
-4.24263e-06
6.32331e-06
-3.89816e-06
3.80001e-06
-3.77547e-06
1.34798e-06
-3.89989e-06
-1.08262e-06
-4.25148e-06
-3.55236e-06
-4.76126e-06
-6.11332e-06
-5.30228e-06
-8.7845e-06
-5.68157e-06
-1.15107e-05
-5.64685e-06
-1.4091e-05
-4.9367e-06
-1.60643e-05
-3.41908e-06
-1.65527e-05
-1.38503e-06
-1.40997e-05
-6.76436e-06
-1.77992e-06
8.39112e-06
-3.7031e-06
1.57371e-05
-4.49022e-06
1.70697e-05
-4.17898e-06
1.55803e-05
-3.18147e-06
1.30426e-05
-1.90975e-06
1.03e-05
-6.73171e-07
7.69665e-06
3.27481e-07
5.32266e-06
9.74673e-07
3.15282e-06
1.20771e-06
1.11495e-06
1.0056e-06
-8.80514e-07
3.81571e-07
-2.92832e-06
-6.10683e-07
-5.12106e-06
-1.8585e-06
-7.53668e-06
-3.16148e-06
-1.02077e-05
-4.20305e-06
-1.30495e-05
-4.55406e-06
-1.57133e-05
-3.77896e-06
-1.73278e-05
-1.82507e-06
-1.60536e-05
-8.58943e-06
-2.29696e-06
1.06881e-05
-3.62753e-06
1.70677e-05
-2.98393e-06
1.64261e-05
-1.0928e-06
1.36892e-05
1.26527e-06
1.06845e-05
3.56956e-06
7.99574e-06
5.52571e-06
5.74049e-06
6.98845e-06
3.85991e-06
7.8949e-06
2.24637e-06
8.22095e-06
7.88904e-07
7.95837e-06
-6.17931e-07
7.10767e-06
-2.07762e-06
5.68485e-06
-3.69825e-06
3.74456e-06
-5.59638e-06
1.42545e-06
-7.88864e-06
-9.7885e-07
-1.06452e-05
-2.93634e-06
-1.37558e-05
-3.6395e-06
-1.66246e-05
-2.32694e-06
-1.73662e-05
-1.09164e-05
-2.50264e-06
1.31907e-05
-1.93661e-06
1.65017e-05
1.19217e-06
1.32973e-05
5.11545e-06
9.76589e-06
8.85011e-06
6.94984e-06
1.19902e-05
4.85564e-06
1.44131e-05
3.31758e-06
1.61167e-05
2.15639e-06
1.71348e-05
1.22827e-06
1.74978e-05
4.25889e-07
1.72159e-05
-3.36066e-07
1.62745e-05
-1.13618e-06
1.46373e-05
-2.06103e-06
1.22619e-05
-3.22103e-06
9.13955e-06
-4.76629e-06
5.38193e-06
-6.88754e-06
1.39191e-06
-9.76581e-06
-1.83221e-06
-1.34005e-05
-2.48297e-06
-1.67154e-05
-1.33993e-05
-5.77773e-07
1.37685e-05
4.63761e-06
1.12863e-05
1.10736e-05
6.86133e-06
1.66501e-05
4.1894e-06
2.09785e-05
2.62143e-06
2.41659e-05
1.66825e-06
2.64163e-05
1.06724e-06
2.79087e-05
6.63898e-07
2.87694e-05
3.67585e-07
2.90711e-05
1.24259e-07
2.88375e-05
-1.02459e-07
2.80451e-05
-3.43805e-07
2.66202e-05
-6.36159e-07
2.4433e-05
-1.03381e-06
2.12955e-05
-1.62877e-06
1.69885e-05
-2.58062e-06
1.13873e-05
-4.16452e-06
4.87087e-06
-6.88413e-06
-4.69194e-07
-1.13753e-05
-1.38685e-05
1.37685e-05
2.50548e-05
3.19161e-05
3.61055e-05
3.87269e-05
4.03952e-05
4.14624e-05
4.21263e-05
4.24939e-05
4.26182e-05
4.25157e-05
4.21719e-05
4.15357e-05
4.05019e-05
3.88732e-05
3.62925e-05
3.2128e-05
2.52439e-05
1.38685e-05
)
;

boundaryField
{
    movingWall
    {
        type            calculated;
        value           uniform 0;
    }
    fixedWalls
    {
        type            calculated;
        value           uniform 0;
    }
    frontAndBack
    {
        type            empty;
        value           nonuniform 0();
    }
}


// ************************************************************************* //
