/*--------------------------------*- C++ -*----------------------------------*\
  =========                 |
  \\      /  F ield         | OpenFOAM: The Open Source CFD Toolbox
   \\    /   O peration     | Website:  https://openfoam.org
    \\  /    A nd           | Version:  6
     \\/     M anipulation  |
\*---------------------------------------------------------------------------*/
FoamFile
{
    version     2.0;
    format      ascii;
    class       surfaceScalarField;
    location    "0.055";
    object      phi;
}
// * * * * * * * * * * * * * * * * * * * * * * * * * * * * * * * * * * * * * //

dimensions      [0 3 -1 0 0 0 0];

internalField   nonuniform List<scalar> 
760
(
1.47326e-08
-1.4759e-08
-2.09011e-08
3.56343e-08
-1.1281e-07
9.19097e-08
-2.44752e-07
1.31943e-07
-3.9666e-07
1.51908e-07
-5.49237e-07
1.52577e-07
-6.85795e-07
1.36559e-07
-7.93092e-07
1.07297e-07
-8.6158e-07
6.84888e-08
-8.85446e-07
2.38665e-08
-8.62612e-07
-2.2834e-08
-7.94781e-07
-6.78316e-08
-6.87529e-07
-1.07252e-07
-5.50399e-07
-1.3713e-07
-3.96882e-07
-1.53519e-07
-2.44074e-07
-1.52809e-07
-1.1168e-07
-1.32395e-07
-1.99503e-08
-9.17296e-08
1.51024e-08
-3.50524e-08
1.51029e-08
-3.30295e-08
1.827e-08
-1.77796e-07
1.804e-07
-4.31181e-07
3.45294e-07
-7.63016e-07
4.63778e-07
-1.13323e-06
5.2212e-07
-1.50065e-06
5.20003e-07
-1.82806e-06
4.63959e-07
-2.08488e-06
3.64123e-07
-2.24864e-06
2.32247e-07
-2.3055e-06
8.07226e-08
-2.25056e-06
-7.77743e-08
-2.08803e-06
-2.3036e-07
-1.83131e-06
-3.6397e-07
-1.50288e-06
-4.65559e-07
-1.13372e-06
-5.22678e-07
-7.61808e-07
-5.24721e-07
-4.29046e-07
-4.65158e-07
-1.75879e-07
-3.44896e-07
-3.21713e-08
-1.78761e-07
-1.70679e-08
-9.0579e-08
1.08849e-07
-3.53575e-07
4.43396e-07
-7.61184e-07
7.52903e-07
-1.26727e-06
9.69866e-07
-1.81684e-06
1.07168e-06
-2.35427e-06
1.05743e-06
-2.82914e-06
9.38829e-07
-3.19983e-06
7.34816e-07
-3.43554e-06
4.67956e-07
-3.51726e-06
1.62449e-07
-3.43829e-06
-1.56746e-07
-3.20443e-06
-4.6422e-07
-2.83409e-06
-7.34315e-07
-2.35799e-06
-9.41654e-07
-1.81828e-06
-1.06239e-06
-1.2663e-06
-1.07669e-06
-7.58695e-07
-9.72764e-07
-3.51078e-07
-7.52513e-07
-8.93587e-08
-4.40481e-07
-1.06426e-07
-1.43152e-07
2.52e-07
-5.21836e-07
8.2208e-07
-1.07912e-06
1.31018e-06
-1.7487e-06
1.63945e-06
-2.46032e-06
1.7833e-06
-3.14625e-06
1.74337e-06
-3.74651e-06
1.53909e-06
-4.21218e-06
1.20048e-06
-4.50729e-06
7.63068e-07
-4.60973e-06
2.64889e-07
-4.51165e-06
-2.54833e-07
-4.21967e-06
-7.56195e-07
-3.75508e-06
-1.19891e-06
-3.15362e-06
-1.54311e-06
-2.46475e-06
-1.75126e-06
-1.74963e-06
-1.79181e-06
-1.07736e-06
-1.64503e-06
-5.1927e-07
-1.31061e-06
-1.41683e-07
-8.18068e-07
-2.48109e-07
-1.91519e-07
4.43519e-07
-6.82609e-07
1.31317e-06
-1.38683e-06
2.01441e-06
-2.21508e-06
2.4677e-06
-3.08048e-06
2.6487e-06
-3.90374e-06
2.56663e-06
-4.61716e-06
2.25251e-06
-5.16694e-06
1.75026e-06
-5.5142e-06
1.11033e-06
-5.63524e-06
3.85929e-07
-5.52155e-06
-3.68526e-07
-5.17992e-06
-1.09782e-06
-4.6328e-06
-1.74603e-06
-3.91859e-06
-2.25733e-06
-3.09159e-06
-2.57826e-06
-2.22094e-06
-2.66246e-06
-1.38787e-06
-2.4781e-06
-6.81003e-07
-2.01747e-06
-1.90066e-07
-1.30901e-06
-4.38173e-07
-2.38561e-07
6.82079e-07
-8.41698e-07
1.91631e-06
-1.69289e-06
2.8656e-06
-2.67812e-06
3.45293e-06
-3.69263e-06
3.66321e-06
-4.64577e-06
3.51977e-06
-5.46355e-06
3.07029e-06
-6.08936e-06
2.37607e-06
-6.48339e-06
1.50436e-06
-6.62174e-06
5.24279e-07
-6.49566e-06
-4.94608e-07
-6.11146e-06
-1.48202e-06
-5.49116e-06
-2.36634e-06
-4.67362e-06
-3.07487e-06
-3.71585e-06
-3.53603e-06
-2.69353e-06
-3.68478e-06
-1.7e-06
-3.47163e-06
-8.42803e-07
-2.87467e-06
-2.37631e-07
-1.91418e-06
-6.75804e-07
-2.8725e-07
9.69328e-07
-1.00589e-06
2.63495e-06
-2.00668e-06
3.86639e-06
-3.14819e-06
4.59443e-06
-4.30675e-06
4.82177e-06
-5.38105e-06
4.59407e-06
-6.29282e-06
3.98206e-06
-6.98513e-06
3.06838e-06
-7.41961e-06
1.93885e-06
-7.57375e-06
6.78417e-07
-7.43907e-06
-6.29292e-07
-7.02068e-06
-1.9004e-06
-6.33834e-06
-3.04868e-06
-5.42882e-06
-3.98438e-06
-4.34911e-06
-4.61575e-06
-3.17936e-06
-4.85452e-06
-2.02445e-06
-4.62654e-06
-1.01229e-06
-3.88683e-06
-2.87648e-07
-2.63882e-06
-9.6345e-07
-3.40369e-07
1.3097e-06
-1.18161e-06
3.47619e-06
-2.33605e-06
5.02084e-06
-3.63138e-06
5.88976e-06
-4.92444e-06
6.11483e-06
-6.10512e-06
5.77474e-06
-7.09418e-06
4.97112e-06
-7.83808e-06
3.81229e-06
-8.30311e-06
2.40387e-06
-8.47025e-06
8.45563e-07
-8.33203e-06
-7.67512e-07
-7.89153e-06
-2.34091e-06
-7.16394e-06
-3.77627e-06
-6.18047e-06
-4.96785e-06
-4.99406e-06
-5.80215e-06
-3.68585e-06
-6.16273e-06
-2.37034e-06
-5.94205e-06
-1.19675e-06
-5.06043e-06
-3.43232e-07
-3.49234e-06
-1.30668e-06
-4.0067e-07
1.71037e-06
-1.37465e-06
4.45017e-06
-2.68626e-06
6.33245e-06
-4.1275e-06
7.331e-06
-5.53609e-06
7.52342e-06
-6.79696e-06
7.03561e-06
-7.83533e-06
6.0095e-06
-8.60655e-06
4.5835e-06
-9.08596e-06
2.88328e-06
-9.26097e-06
1.02058e-06
-9.12611e-06
-9.02375e-07
-8.68147e-06
-2.78555e-06
-7.93477e-06
-4.52296e-06
-6.90698e-06
-5.99564e-06
-5.64114e-06
-7.06799e-06
-4.21341e-06
-7.59046e-06
-2.74381e-06
-7.41165e-06
-1.40277e-06
-6.40148e-06
-4.07481e-07
-4.48762e-06
-1.71416e-06
-4.71436e-07
2.1818e-06
-1.59083e-06
5.56957e-06
-3.05954e-06
7.80115e-06
-4.62806e-06
8.89953e-06
-6.11732e-06
9.01267e-06
-7.41434e-06
8.33263e-06
-8.45724e-06
7.05239e-06
-9.21788e-06
5.34414e-06
-9.68656e-06
3.35197e-06
-9.86076e-06
1.19477e-06
-9.73835e-06
-1.02478e-06
-9.31548e-06
-3.20842e-06
-8.58894e-06
-5.2495e-06
-7.56349e-06
-7.0211e-06
-6.2641e-06
-8.36738e-06
-4.75275e-06
-9.1018e-06
-3.14725e-06
-9.01716e-06
-1.63667e-06
-7.91205e-06
-4.84005e-07
-5.64029e-06
-2.19817e-06
-5.57518e-07
2.73932e-06
-1.83701e-06
6.84907e-06
-3.45448e-06
9.41861e-06
-5.11311e-06
1.05582e-05
-6.62363e-06
1.05232e-05
-7.88713e-06
9.59613e-06
-8.86692e-06
8.03218e-06
-9.5614e-06
6.03862e-06
-9.9828e-06
3.77337e-06
-1.01428e-05
1.35475e-06
-1.00442e-05
-1.12335e-06
-9.67846e-06
-3.57418e-06
-9.02785e-06
-5.90011e-06
-8.07406e-06
-7.97488e-06
-6.81354e-06
-9.6279e-06
-5.28075e-06
-1.06346e-05
-3.57789e-06
-1.072e-05
-1.90527e-06
-9.58468e-06
-5.77903e-07
-6.96765e-06
-2.77607e-06
-6.67047e-07
3.40637e-06
-2.12225e-06
8.30428e-06
-3.86375e-06
1.11601e-05
-5.54496e-06
1.22394e-05
-6.98127e-06
1.19595e-05
-8.10719e-06
1.07221e-05
-8.92785e-06
8.85285e-06
-9.47989e-06
6.59066e-06
-9.80455e-06
4.09803e-06
-9.93144e-06
1.48165e-06
-9.86999e-06
-1.18479e-06
-9.60648e-06
-3.83769e-06
-9.10604e-06
-6.40055e-06
-8.32078e-06
-8.76014e-06
-7.20673e-06
-1.07419e-05
-5.75296e-06
-1.20884e-05
-4.0247e-06
-1.24483e-05
-2.2165e-06
-1.13929e-05
-6.97381e-07
-8.48677e-06
-3.47345e-06
-8.14212e-07
4.22058e-06
-2.45798e-06
9.94804e-06
-4.26743e-06
1.29696e-05
-5.85533e-06
1.38273e-05
-7.07164e-06
1.31758e-05
-7.91334e-06
1.15638e-05
-8.44761e-06
9.38712e-06
-8.76044e-06
6.90349e-06
-8.92702e-06
4.26461e-06
-8.99674e-06
1.55137e-06
-8.98645e-06
-1.19508e-06
-8.87803e-06
-3.94611e-06
-8.61907e-06
-6.65952e-06
-8.12841e-06
-9.2508e-06
-7.31099e-06
-1.15594e-05
-6.08939e-06
-1.331e-05
-4.46028e-06
-1.40774e-05
-2.57882e-06
-1.32743e-05
-8.5636e-07
-1.02092e-05
-4.32981e-06
-1.02315e-06
5.24373e-06
-2.85365e-06
1.17785e-05
-4.61531e-06
1.47312e-05
-5.91913e-06
1.51311e-05
-6.70418e-06
1.39609e-05
-7.06907e-06
1.19286e-05
-7.16276e-06
9.48081e-06
-7.12629e-06
6.86702e-06
-7.06759e-06
4.2059e-06
-7.05322e-06
1.537e-06
-7.10671e-06
-1.14159e-06
-7.2077e-06
-3.84513e-06
-7.29048e-06
-6.57673e-06
-7.2437e-06
-9.29758e-06
-6.91713e-06
-1.18859e-05
-6.14754e-06
-1.40795e-05
-4.82164e-06
-1.54033e-05
-2.99559e-06
-1.51004e-05
-1.07799e-06
-1.21268e-05
-5.4078e-06
-1.33014e-06
6.57387e-06
-3.2967e-06
1.37451e-05
-4.78327e-06
1.62178e-05
-5.50291e-06
1.58507e-05
-5.57154e-06
1.40295e-05
-5.23184e-06
1.15889e-05
-4.72321e-06
8.97218e-06
-4.23345e-06
6.37727e-06
-3.89046e-06
3.8629e-06
-3.76811e-06
1.41466e-06
-3.89307e-06
-1.01664e-06
-4.24676e-06
-3.49144e-06
-4.7612e-06
-6.06229e-06
-5.30971e-06
-8.74907e-06
-5.69828e-06
-1.14974e-05
-5.67197e-06
-1.41058e-05
-4.96536e-06
-1.61099e-05
-3.44281e-06
-1.66229e-05
-1.39584e-06
-1.41738e-05
-6.80364e-06
-1.76843e-06
8.3423e-06
-3.68326e-06
1.56599e-05
-4.47215e-06
1.70067e-05
-4.16947e-06
1.5548e-05
-3.18176e-06
1.30418e-05
-1.91697e-06
1.03242e-05
-6.8261e-07
7.73782e-06
3.20492e-07
5.37416e-06
9.73653e-07
3.20974e-06
1.21447e-06
1.17385e-06
1.02003e-06
-8.22201e-07
4.01602e-07
-2.873e-06
-5.88903e-07
-5.07178e-06
-1.8401e-06
-7.49787e-06
-3.15177e-06
-1.01857e-05
-4.20553e-06
-1.30521e-05
-4.56787e-06
-1.57476e-05
-3.79703e-06
-1.73938e-05
-1.83615e-06
-1.61347e-05
-8.63979e-06
-2.28919e-06
1.06315e-05
-3.62344e-06
1.69942e-05
-2.99355e-06
1.63768e-05
-1.11795e-06
1.36724e-05
1.22933e-06
1.06945e-05
3.53039e-06
8.0231e-06
5.49079e-06
5.77741e-06
6.96369e-06
3.90127e-06
7.88417e-06
2.28926e-06
8.22611e-06
8.31907e-07
7.97935e-06
-5.75444e-07
7.14248e-06
-2.03614e-06
5.72948e-06
-3.65878e-06
3.79288e-06
-5.56127e-06
1.46962e-06
-7.86246e-06
-9.46972e-07
-1.06355e-05
-2.92211e-06
-1.37724e-05
-3.64134e-06
-1.66745e-05
-2.33414e-06
-1.74419e-05
-1.09739e-05
-2.50736e-06
1.31389e-05
-1.96177e-06
1.64486e-05
1.14396e-06
1.32711e-05
5.05103e-06
9.76536e-06
8.7802e-06
6.96533e-06
1.19249e-05
4.87841e-06
1.43599e-05
3.34246e-06
1.60801e-05
2.18099e-06
1.71175e-05
1.25185e-06
1.75009e-05
4.48554e-07
1.72393e-05
-3.13808e-07
1.63168e-05
-1.11372e-06
1.4696e-05
-2.03796e-06
1.23324e-05
-3.19765e-06
9.21435e-06
-4.74441e-06
5.45077e-06
-6.87191e-06
1.44361e-06
-9.76526e-06
-1.80515e-06
-1.34258e-05
-2.47783e-06
-1.67692e-05
-1.34518e-05
-6.05364e-07
1.37442e-05
4.57937e-06
1.12639e-05
1.09956e-05
6.85486e-06
1.65658e-05
4.19515e-06
2.08995e-05
2.63158e-06
2.40996e-05
1.67838e-06
2.6366e-05
1.076e-06
2.78758e-05
6.71217e-07
2.87539e-05
3.73798e-07
2.90726e-05
1.29807e-07
2.88559e-05
-9.70998e-08
2.80803e-05
-3.38123e-07
2.66719e-05
-6.29608e-07
2.45002e-05
-1.02585e-06
2.13749e-05
-1.61917e-06
1.70734e-05
-2.57038e-06
1.1466e-05
-4.15785e-06
4.92923e-06
-6.88905e-06
-4.42514e-07
-1.13975e-05
-1.38943e-05
1.37442e-05
2.50081e-05
3.18629e-05
3.60581e-05
3.86897e-05
4.0368e-05
4.1444e-05
4.21153e-05
4.24891e-05
4.26189e-05
4.25218e-05
4.21836e-05
4.1554e-05
4.05282e-05
3.8909e-05
3.63386e-05
3.21808e-05
2.52917e-05
1.38943e-05
)
;

boundaryField
{
    movingWall
    {
        type            calculated;
        value           uniform 0;
    }
    fixedWalls
    {
        type            calculated;
        value           uniform 0;
    }
    frontAndBack
    {
        type            empty;
        value           nonuniform 0();
    }
}


// ************************************************************************* //
