/*--------------------------------*- C++ -*----------------------------------*\
  =========                 |
  \\      /  F ield         | OpenFOAM: The Open Source CFD Toolbox
   \\    /   O peration     | Website:  https://openfoam.org
    \\  /    A nd           | Version:  6
     \\/     M anipulation  |
\*---------------------------------------------------------------------------*/
FoamFile
{
    version     2.0;
    format      ascii;
    class       volVectorField;
    location    "0.055";
    object      U;
}
// * * * * * * * * * * * * * * * * * * * * * * * * * * * * * * * * * * * * * //

dimensions      [0 1 -1 0 0 0 0];

internalField   nonuniform List<vector> 
400
(
(0.000256208 -0.000252697 0)
(0.000157429 0.000107273 0)
(-0.00114737 0.000566149 0)
(-0.00345639 0.000894427 0)
(-0.00637459 0.00106041 0)
(-0.00949486 0.00107635 0)
(-0.0124504 0.000966948 0)
(-0.0149386 0.000760779 0)
(-0.0167301 0.000486193 0)
(-0.017671 0.000170322 0)
(-0.017682 -0.000160448 0)
(-0.0167592 -0.000479579 0)
(-0.0149751 -0.000759493 0)
(-0.0124812 -0.000971043 0)
(-0.00950934 -0.00108373 0)
(-0.00636918 -0.00106752 0)
(-0.00343641 -0.000897757 0)
(-0.00112478 -0.000564145 0)
(0.000171344 -0.000102033 0)
(0.000259944 0.000255617 0)
(-6.90358e-05 -0.00018708 0)
(-0.001575 0.00161925 0)
(-0.00563292 0.00361403 0)
(-0.0116705 0.0050627 0)
(-0.0188861 0.0057918 0)
(-0.0264477 0.00580853 0)
(-0.0335567 0.00519891 0)
(-0.0395249 0.00408656 0)
(-0.0438169 0.0026093 0)
(-0.0460674 0.000909108 0)
(-0.0460881 -0.000870498 0)
(-0.0438716 -0.002584 0)
(-0.039594 -0.00408298 0)
(-0.0336157 -0.00521723 0)
(-0.0264764 -0.00584016 0)
(-0.0188772 -0.00582233 0)
(-0.0116328 -0.00507786 0)
(-0.00558819 -0.00360725 0)
(-0.00154536 -0.00159797 0)
(-6.02515e-05 0.000201447 0)
(-0.000515323 0.00104312 0)
(-0.00366011 0.00567393 0)
(-0.0105121 0.010213 0)
(-0.0199381 0.013464 0)
(-0.0307724 0.0150461 0)
(-0.0419008 0.0149366 0)
(-0.0522488 0.0133073 0)
(-0.0608812 0.0104367 0)
(-0.0670663 0.0066545 0)
(-0.070303 0.00231216 0)
(-0.0703326 -0.00222867 0)
(-0.0671454 -0.00660002 0)
(-0.0609839 -0.0104298 0)
(-0.0523417 -0.0133486 0)
(-0.0419553 -0.0150079 0)
(-0.0307753 -0.0151162 0)
(-0.019898 -0.0135014 0)
(-0.0104561 -0.010202 0)
(-0.00361951 -0.00562794 0)
(-0.0005024 -0.0010076 0)
(-0.000910539 0.00339225 0)
(-0.00563184 0.0121207 0)
(-0.0152285 0.0199162 0)
(-0.0278953 0.0253075 0)
(-0.0420578 0.0277748 0)
(-0.0563471 0.0273041 0)
(-0.0694782 0.0241905 0)
(-0.0803468 0.0189109 0)
(-0.0880972 0.0120353 0)
(-0.092146 0.00417769 0)
(-0.0921923 -0.00402769 0)
(-0.0882232 -0.0119349 0)
(-0.0805174 -0.0188925 0)
(-0.0696468 -0.0242572 0)
(-0.0564706 -0.0274267 0)
(-0.0421111 -0.0279013 0)
(-0.0278809 -0.025383 0)
(-0.0151769 -0.0199093 0)
(-0.00558545 -0.012048 0)
(-0.00089395 -0.00332873 0)
(-0.00125932 0.00674621 0)
(-0.00748391 0.0208286 0)
(-0.0197774 0.0325436 0)
(-0.0356178 0.0403084 0)
(-0.0529776 0.0435826 0)
(-0.0702255 0.0424466 0)
(-0.0858933 0.0373826 0)
(-0.0987546 0.0291144 0)
(-0.107879 0.0184917 0)
(-0.112641 0.00642158 0)
(-0.112718 -0.00616214 0)
(-0.108093 -0.0183101 0)
(-0.0990559 -0.0290634 0)
(-0.0862133 -0.0374711 0)
(-0.0704959 -0.0426348 0)
(-0.0531503 -0.0437927 0)
(-0.035681 -0.040453 0)
(-0.0197605 -0.032565 0)
(-0.00744287 -0.0207385 0)
(-0.00124063 -0.00665164 0)
(-0.00159137 0.0110452 0)
(-0.00930265 0.0317638 0)
(-0.0242987 0.0480916 0)
(-0.0433046 0.0584474 0)
(-0.0638003 0.0624019 0)
(-0.0838802 0.0602454 0)
(-0.101912 0.0527366 0)
(-0.116587 0.0409092 0)
(-0.126942 0.0259305 0)
(-0.132345 0.00902152 0)
(-0.132473 -0.00857582 0)
(-0.127301 -0.025603 0)
(-0.117106 -0.0407831 0)
(-0.102491 -0.052834 0)
(-0.0844104 -0.0605168 0)
(-0.064196 -0.0627383 0)
(-0.0435263 -0.0587159 0)
(-0.0243665 -0.0481908 0)
(-0.0092872 -0.0316855 0)
(-0.00157413 -0.010924 0)
(-0.0019364 0.0162921 0)
(-0.0111877 0.0449602 0)
(-0.0289599 0.0665982 0)
(-0.0511602 0.0797235 0)
(-0.0747341 0.0841676 0)
(-0.0975007 0.0805752 0)
(-0.117694 0.0700959 0)
(-0.133969 0.0541479 0)
(-0.145386 0.0342539 0)
(-0.151347 0.0119563 0)
(-0.151549 -0.0112046 0)
(-0.145958 -0.0336773 0)
(-0.134813 -0.0538755 0)
(-0.118664 -0.0701736 0)
(-0.0984346 -0.0809482 0)
(-0.0754897 -0.08469 0)
(-0.0516514 -0.0802008 0)
(-0.0291844 -0.0668606 0)
(-0.0112289 -0.0449529 0)
(-0.00192674 -0.0161614 0)
(-0.00232231 0.0225477 0)
(-0.0132356 0.0605252 0)
(-0.0339162 0.088137 0)
(-0.0593386 0.104119 0)
(-0.0858669 0.108752 0)
(-0.111063 0.103222 0)
(-0.133084 0.0892104 0)
(-0.150626 0.0686034 0)
(-0.162843 0.0433108 0)
(-0.169227 0.0151875 0)
(-0.169527 -0.0139629 0)
(-0.163695 -0.0423388 0)
(-0.151903 -0.0680777 0)
(-0.134587 -0.0892172 0)
(-0.112562 -0.103711 0)
(-0.0871442 -0.109536 0)
(-0.0602379 -0.104924 0)
(-0.0343917 -0.0886929 0)
(-0.0133767 -0.0606892 0)
(-0.00232938 -0.0224444 0)
(-0.00277822 0.029928 0)
(-0.0155422 0.0786349 0)
(-0.039299 0.112796 0)
(-0.0679127 0.131549 0)
(-0.0971152 0.135897 0)
(-0.124264 0.127805 0)
(-0.147544 0.109658 0)
(-0.165805 0.0839028 0)
(-0.178398 0.0528532 0)
(-0.184984 0.0186412 0)
(-0.185397 -0.0167336 0)
(-0.179585 -0.051297 0)
(-0.167605 -0.0829786 0)
(-0.149708 -0.109513 0)
(-0.126486 -0.128407 0)
(-0.0990831 -0.137026 0)
(-0.0693753 -0.132836 0)
(-0.0401387 -0.113827 0)
(-0.0158386 -0.0791221 0)
(-0.0028147 -0.0299152 0)
(-0.00334227 0.0386074 0)
(-0.0182187 0.0995221 0)
(-0.0452221 0.140628 0)
(-0.076851 0.161782 0)
(-0.108167 0.165099 0)
(-0.136439 0.153654 0)
(-0.160049 0.130739 0)
(-0.178169 0.0994451 0)
(-0.190486 0.0624814 0)
(-0.196922 0.0221845 0)
(-0.197453 -0.0193584 0)
(-0.192019 -0.0601229 0)
(-0.180526 -0.0979424 0)
(-0.162941 -0.130326 0)
(-0.139492 -0.154344 0)
(-0.110967 -0.166651 0)
(-0.079027 -0.163724 0)
(-0.0465481 -0.142365 0)
(-0.0187361 -0.100543 0)
(-0.00342473 -0.0387815 0)
(-0.00407572 0.0488385 0)
(-0.0214199 0.123467 0)
(-0.0517904 0.171578 0)
(-0.0859795 0.194303 0)
(-0.118395 0.195464 0)
(-0.146437 0.179674 0)
(-0.168947 0.151359 0)
(-0.185653 0.114314 0)
(-0.196745 0.0715891 0)
(-0.202518 0.0256017 0)
(-0.203144 -0.0216323 0)
(-0.198567 -0.0682095 0)
(-0.188497 -0.112034 0)
(-0.172517 -0.150523 0)
(-0.150317 -0.180377 0)
(-0.122085 -0.197481 0)
(-0.0889749 -0.197073 0)
(-0.0537154 -0.174289 0)
(-0.0222307 -0.125292 0)
(-0.00422487 -0.0493354 0)
(-0.00508816 0.0609997 0)
(-0.0253881 0.150789 0)
(-0.0590973 0.205369 0)
(-0.0948942 0.228134 0)
(-0.126689 0.225505 0)
(-0.152415 0.204169 0)
(-0.171756 0.169903 0)
(-0.185281 0.1272 0)
(-0.193866 0.0793187 0)
(-0.198281 0.028572 0)
(-0.198943 -0.023305 0)
(-0.195812 -0.074749 0)
(-0.18838 -0.123956 0)
(-0.175758 -0.168461 0)
(-0.156923 -0.204748 0)
(-0.131164 -0.227955 0)
(-0.0987085 -0.231852 0)
(-0.06169 -0.209319 0)
(-0.0265618 -0.153733 0)
(-0.00532879 -0.061999 0)
(-0.00658187 0.0756921 0)
(-0.0305079 0.181812 0)
(-0.0671647 0.241286 0)
(-0.102752 0.261541 0)
(-0.131159 0.252878 0)
(-0.151523 0.224662 0)
(-0.164885 0.184139 0)
(-0.172952 0.136357 0)
(-0.177437 0.0845477 0)
(-0.179634 0.0306611 0)
(-0.180228 -0.0240946 0)
(-0.179211 -0.0787424 0)
(-0.175863 -0.132032 0)
(-0.168803 -0.181903 0)
(-0.156168 -0.224903 0)
(-0.136044 -0.255603 0)
(-0.107186 -0.266201 0)
(-0.0703931 -0.246672 0)
(-0.0320938 -0.186203 0)
(-0.00694192 -0.0774163 0)
(-0.00892177 0.0939053 0)
(-0.0373437 0.216747 0)
(-0.0757168 0.277778 0)
(-0.107797 0.291592 0)
(-0.128565 0.274069 0)
(-0.139392 0.237749 0)
(-0.143254 0.191201 0)
(-0.143219 0.139658 0)
(-0.141843 0.0859455 0)
(-0.140892 0.0313417 0)
(-0.141272 -0.0237188 0)
(-0.14302 -0.0790711 0)
(-0.14528 -0.13428 0)
(-0.146272 -0.188033 0)
(-0.143317 -0.237373 0)
(-0.133106 -0.276743 0)
(-0.112333 -0.296968 0)
(-0.0793581 -0.284616 0)
(-0.0393363 -0.22285 0)
(-0.00942852 -0.0966092 0)
(-0.0127001 0.117241 0)
(-0.0465075 0.255303 0)
(-0.083497 0.31172 0)
(-0.106328 0.313556 0)
(-0.113303 0.284125 0)
(-0.109361 0.239127 0)
(-0.099843 0.18779 0)
(-0.0891086 0.134834 0)
(-0.0803021 0.0821619 0)
(-0.0754088 0.0300706 0)
(-0.075412 -0.0219515 0)
(-0.0803973 -0.0746787 0)
(-0.0895318 -0.128671 0)
(-0.100914 -0.183693 0)
(-0.111365 -0.23785 0)
(-0.116313 -0.286246 0)
(-0.110007 -0.319109 0)
(-0.0870022 -0.319688 0)
(-0.0487736 -0.263183 0)
(-0.013365 -0.121175 0)
(-0.0185824 0.148235 0)
(-0.0578039 0.295683 0)
(-0.0864086 0.33709 0)
(-0.0905919 0.320173 0)
(-0.0757235 0.276633 0)
(-0.0514558 0.224028 0)
(-0.0252748 0.170774 0)
(-0.00216341 0.120026 0)
(0.0148171 0.0722096 0)
(0.0239552 0.0264486 0)
(0.0244495 -0.0187074 0)
(0.0161816 -0.0648957 0)
(-0.000274608 -0.113653 0)
(-0.0233978 -0.166009 0)
(-0.050227 -0.221701 0)
(-0.0757007 -0.277619 0)
(-0.0919731 -0.325032 0)
(-0.0887402 -0.345368 0)
(-0.0599324 -0.304997 0)
(-0.0193501 -0.153571 0)
(-0.0261485 0.191105 0)
(-0.0672216 0.332211 0)
(-0.073068 0.342519 0)
(-0.0448443 0.300777 0)
(0.000325793 0.244163 0)
(0.0486611 0.188263 0)
(0.0922589 0.138274 0)
(0.12706 0.0946519 0)
(0.151195 0.0560245 0)
(0.163901 0.0204541 0)
(0.164881 -0.0141381 0)
(0.154023 -0.0498802 0)
(0.131388 -0.0889457 0)
(0.0974871 -0.133464 0)
(0.0539485 -0.185079 0)
(0.00468738 -0.243616 0)
(-0.0422796 -0.303923 0)
(-0.0726586 -0.349758 0)
(-0.0682839 -0.341958 0)
(-0.0267557 -0.197773 0)
(-0.0286873 0.24893 0)
(-0.0581838 0.34849 0)
(-0.0154009 0.308214 0)
(0.061066 0.242124 0)
(0.140362 0.180822 0)
(0.21012 0.130873 0)
(0.266167 0.0917399 0)
(0.307661 0.0607844 0)
(0.335106 0.0352439 0)
(0.349231 0.0127477 0)
(0.350464 -0.00875445 0)
(0.338742 -0.0312169 0)
(0.313494 -0.0567525 0)
(0.273781 -0.0878761 0)
(0.218804 -0.12761 0)
(0.149054 -0.17899 0)
(0.0684327 -0.242966 0)
(-0.0107013 -0.312911 0)
(-0.0566136 -0.356738 0)
(-0.0283684 -0.256032 0)
(0.0132475 0.287614 0)
(0.0288535 0.301524 0)
(0.151502 0.213635 0)
(0.279684 0.142602 0)
(0.379916 0.0945397 0)
(0.45443 0.0626278 0)
(0.508322 0.0411749 0)
(0.545507 0.0261011 0)
(0.568992 0.0146983 0)
(0.580763 0.00519155 0)
(0.581781 -0.00370031 0)
(0.572055 -0.013111 0)
(0.550623 -0.0243333 0)
(0.515439 -0.0391806 0)
(0.463317 -0.0604727 0)
(0.390003 -0.0925674 0)
(0.289905 -0.141664 0)
(0.16011 -0.215001 0)
(0.0342388 -0.305704 0)
(0.0158704 -0.292142 0)
(0.304279 0.146878 0)
(0.404862 0.127586 0)
(0.567544 0.0749639 0)
(0.684224 0.0421603 0)
(0.752015 0.024147 0)
(0.793448 0.014163 0)
(0.820059 0.00846018 0)
(0.837035 0.00499795 0)
(0.847205 0.00267419 0)
(0.85211 0.000888184 0)
(0.85243 -0.000727576 0)
(0.848194 -0.00247155 0)
(0.838784 -0.00470278 0)
(0.822714 -0.00800668 0)
(0.79718 -0.0134748 0)
(0.756963 -0.0231844 0)
(0.690406 -0.0410408 0)
(0.574191 -0.0741039 0)
(0.409764 -0.127675 0)
(0.3066 -0.147726 0)
)
;

boundaryField
{
    movingWall
    {
        type            fixedValue;
        value           uniform (1 0 0);
    }
    fixedWalls
    {
        type            noSlip;
    }
    frontAndBack
    {
        type            empty;
    }
}


// ************************************************************************* //
