/*--------------------------------*- C++ -*----------------------------------*\
  =========                 |
  \\      /  F ield         | OpenFOAM: The Open Source CFD Toolbox
   \\    /   O peration     | Website:  https://openfoam.org
    \\  /    A nd           | Version:  6
     \\/     M anipulation  |
\*---------------------------------------------------------------------------*/
FoamFile
{
    version     2.0;
    format      ascii;
    class       volVectorField;
    location    "0.075";
    object      U;
}
// * * * * * * * * * * * * * * * * * * * * * * * * * * * * * * * * * * * * * //

dimensions      [0 1 -1 0 0 0 0];

internalField   nonuniform List<vector> 
400
(
(0.000256276 -0.00025276 0)
(0.000157506 0.000107275 0)
(-0.00114753 0.000566246 0)
(-0.00345702 0.000894598 0)
(-0.00637582 0.00106063 0)
(-0.00949674 0.00107657 0)
(-0.0124529 0.00096715 0)
(-0.0149416 0.000760939 0)
(-0.0167336 0.000486294 0)
(-0.0176746 0.000170355 0)
(-0.0176856 -0.000160488 0)
(-0.0167626 -0.000479689 0)
(-0.0149781 -0.000759659 0)
(-0.0124837 -0.000971245 0)
(-0.00951117 -0.00108394 0)
(-0.00637036 -0.00106773 0)
(-0.003437 -0.000897922 0)
(-0.00112493 -0.000564241 0)
(0.000171429 -0.000102039 0)
(0.000260011 0.000255676 0)
(-6.90368e-05 -0.000187147 0)
(-0.00157528 0.00161953 0)
(-0.005634 0.00361473 0)
(-0.0116728 0.00506372 0)
(-0.0188899 0.005793 0)
(-0.026453 0.00580976 0)
(-0.0335636 0.00520003 0)
(-0.0395331 0.00408744 0)
(-0.043826 0.00260986 0)
(-0.046077 0.000909292 0)
(-0.0460976 -0.00087071 0)
(-0.0438806 -0.00258458 0)
(-0.0396021 -0.00408389 0)
(-0.0336225 -0.00521836 0)
(-0.0264817 -0.00584138 0)
(-0.0188808 -0.0058235 0)
(-0.011635 -0.00507885 0)
(-0.00558921 -0.00360793 0)
(-0.00154561 -0.00159823 0)
(-6.02446e-05 0.000201515 0)
(-0.000515423 0.0010433 0)
(-0.00366082 0.00567502 0)
(-0.0105141 0.010215 0)
(-0.019942 0.0134667 0)
(-0.0307784 0.0150492 0)
(-0.0419091 0.0149398 0)
(-0.0522593 0.0133102 0)
(-0.0608934 0.010439 0)
(-0.0670798 0.00665593 0)
(-0.0703172 0.00231263 0)
(-0.0703468 -0.00222921 0)
(-0.0671589 -0.00660151 0)
(-0.060996 -0.0104321 0)
(-0.052352 -0.0133514 0)
(-0.0419634 -0.015011 0)
(-0.0307812 -0.0151193 0)
(-0.0199017 -0.0135041 0)
(-0.010458 -0.0102039 0)
(-0.00362017 -0.00562896 0)
(-0.000502487 -0.00100775 0)
(-0.000910716 0.00339289 0)
(-0.00563289 0.012123 0)
(-0.0152313 0.0199201 0)
(-0.0279004 0.0253125 0)
(-0.0420656 0.0277804 0)
(-0.0563575 0.0273097 0)
(-0.0694911 0.0241956 0)
(-0.0803618 0.0189148 0)
(-0.0881137 0.0120378 0)
(-0.0921633 0.0041785 0)
(-0.0922095 -0.00402865 0)
(-0.0882396 -0.0119376 0)
(-0.0805322 -0.0188966 0)
(-0.0696595 -0.0242623 0)
(-0.0564808 -0.0274324 0)
(-0.0421186 -0.0279069 0)
(-0.0278858 -0.025388 0)
(-0.0151796 -0.0199131 0)
(-0.00558644 -0.0120502 0)
(-0.000894112 -0.00332932 0)
(-0.00125954 0.00674746 0)
(-0.00748515 0.0208324 0)
(-0.0197806 0.0325497 0)
(-0.0356235 0.0403161 0)
(-0.0529862 0.043591 0)
(-0.070237 0.042455 0)
(-0.0859074 0.0373901 0)
(-0.098771 0.0291203 0)
(-0.107897 0.0184953 0)
(-0.11266 0.00642276 0)
(-0.112737 -0.00616357 0)
(-0.108111 -0.018314 0)
(-0.0990721 -0.0290694 0)
(-0.0862272 -0.0374787 0)
(-0.0705071 -0.0426431 0)
(-0.0531587 -0.0438011 0)
(-0.0356866 -0.0404605 0)
(-0.0197636 -0.0325709 0)
(-0.00744405 -0.0207422 0)
(-0.00124083 -0.0066528 0)
(-0.0015916 0.0110472 0)
(-0.00930394 0.0317693 0)
(-0.024302 0.0481 0)
(-0.0433105 0.0584578 0)
(-0.0638089 0.0624133 0)
(-0.0838916 0.0602566 0)
(-0.101926 0.0527466 0)
(-0.116603 0.040917 0)
(-0.126959 0.0259354 0)
(-0.132363 0.00902307 0)
(-0.132492 -0.00857772 0)
(-0.127318 -0.0256082 0)
(-0.117122 -0.0407911 0)
(-0.102505 -0.0528441 0)
(-0.0844216 -0.060528 0)
(-0.0642044 -0.0627495 0)
(-0.0435319 -0.0587261 0)
(-0.0243696 -0.048199 0)
(-0.00928841 -0.0316908 0)
(-0.00157435 -0.0109258 0)
(-0.00193662 0.0162946 0)
(-0.0111888 0.0449673 0)
(-0.0289629 0.0666088 0)
(-0.0511655 0.0797365 0)
(-0.0747419 0.0841816 0)
(-0.097511 0.0805889 0)
(-0.117707 0.0701081 0)
(-0.133984 0.0541574 0)
(-0.145401 0.0342598 0)
(-0.151363 0.0119582 0)
(-0.151566 -0.011207 0)
(-0.145973 -0.0336837 0)
(-0.134827 -0.0538852 0)
(-0.118676 -0.0701859 0)
(-0.0984446 -0.0809619 0)
(-0.0754972 -0.0847038 0)
(-0.0516565 -0.0802136 0)
(-0.0291873 -0.0668709 0)
(-0.01123 -0.0449597 0)
(-0.00192694 -0.0161639 0)
(-0.00232248 0.0225508 0)
(-0.0132365 0.0605337 0)
(-0.0339185 0.0881495 0)
(-0.0593427 0.104134 0)
(-0.0858731 0.108769 0)
(-0.111071 0.103238 0)
(-0.133094 0.0892244 0)
(-0.150638 0.0686143 0)
(-0.162855 0.0433177 0)
(-0.16924 0.0151897 0)
(-0.16954 -0.0139656 0)
(-0.163708 -0.042346 0)
(-0.151914 -0.068089 0)
(-0.134597 -0.0892314 0)
(-0.11257 -0.103726 0)
(-0.0871503 -0.109552 0)
(-0.060242 -0.104939 0)
(-0.034394 -0.088705 0)
(-0.0133776 -0.0606973 0)
(-0.00232955 -0.0224474 0)
(-0.00277833 0.0299316 0)
(-0.0155428 0.0786443 0)
(-0.0393006 0.11281 0)
(-0.0679154 0.131566 0)
(-0.0971191 0.135915 0)
(-0.124269 0.127822 0)
(-0.14755 0.109673 0)
(-0.165813 0.0839147 0)
(-0.178406 0.0528607 0)
(-0.184992 0.0186436 0)
(-0.185406 -0.0167365 0)
(-0.179593 -0.051305 0)
(-0.167612 -0.0829909 0)
(-0.149714 -0.109528 0)
(-0.126491 -0.128425 0)
(-0.0990871 -0.137044 0)
(-0.069378 -0.132852 0)
(-0.0401402 -0.11384 0)
(-0.0158392 -0.0791311 0)
(-0.00281481 -0.0299186 0)
(-0.0033423 0.0386112 0)
(-0.0182188 0.099532 0)
(-0.0452226 0.140642 0)
(-0.0768519 0.161799 0)
(-0.108169 0.165118 0)
(-0.136441 0.153673 0)
(-0.160051 0.130756 0)
(-0.178172 0.0994576 0)
(-0.190489 0.0624893 0)
(-0.196925 0.022187 0)
(-0.197456 -0.0193615 0)
(-0.192022 -0.0601312 0)
(-0.180529 -0.0979552 0)
(-0.162944 -0.130342 0)
(-0.139494 -0.154362 0)
(-0.110969 -0.16667 0)
(-0.079028 -0.163742 0)
(-0.0465487 -0.142379 0)
(-0.0187364 -0.100553 0)
(-0.00342478 -0.0387851 0)
(-0.00407567 0.0488423 0)
(-0.0214196 0.123477 0)
(-0.0517898 0.171593 0)
(-0.0859785 0.194321 0)
(-0.118393 0.195483 0)
(-0.146435 0.179692 0)
(-0.168945 0.151375 0)
(-0.18565 0.114327 0)
(-0.196742 0.071597 0)
(-0.202515 0.0256042 0)
(-0.203142 -0.0216353 0)
(-0.198564 -0.0682177 0)
(-0.188495 -0.112046 0)
(-0.172515 -0.150539 0)
(-0.150315 -0.180395 0)
(-0.122084 -0.1975 0)
(-0.0889742 -0.19709 0)
(-0.053715 -0.174303 0)
(-0.0222306 -0.125301 0)
(-0.00422485 -0.0493391 0)
(-0.00508804 0.0610032 0)
(-0.0253874 0.150798 0)
(-0.0590957 0.205383 0)
(-0.0948914 0.228151 0)
(-0.126685 0.225523 0)
(-0.152409 0.204186 0)
(-0.17175 0.169919 0)
(-0.185273 0.127212 0)
(-0.193858 0.0793263 0)
(-0.198272 0.0285745 0)
(-0.198935 -0.0233078 0)
(-0.195805 -0.0747569 0)
(-0.188373 -0.123968 0)
(-0.175752 -0.168476 0)
(-0.156918 -0.204765 0)
(-0.13116 -0.227973 0)
(-0.0987061 -0.231868 0)
(-0.0616886 -0.209333 0)
(-0.0265613 -0.153742 0)
(-0.0053287 -0.0620024 0)
(-0.00658168 0.0756952 0)
(-0.0305069 0.18182 0)
(-0.0671622 0.241298 0)
(-0.102748 0.261556 0)
(-0.131153 0.252894 0)
(-0.151515 0.224678 0)
(-0.164875 0.184154 0)
(-0.172941 0.136368 0)
(-0.177424 0.0845547 0)
(-0.179621 0.0306634 0)
(-0.180216 -0.0240972 0)
(-0.179199 -0.0787495 0)
(-0.175852 -0.132043 0)
(-0.168794 -0.181917 0)
(-0.156161 -0.224919 0)
(-0.136038 -0.255619 0)
(-0.107182 -0.266216 0)
(-0.0703909 -0.246684 0)
(-0.0320929 -0.186211 0)
(-0.00694177 -0.0774194 0)
(-0.00892155 0.0939078 0)
(-0.0373425 0.216754 0)
(-0.0757138 0.277789 0)
(-0.107791 0.291605 0)
(-0.128558 0.274083 0)
(-0.139382 0.237763 0)
(-0.143241 0.191213 0)
(-0.143204 0.139668 0)
(-0.141827 0.0859516 0)
(-0.140876 0.0313437 0)
(-0.141256 -0.023721 0)
(-0.143004 -0.0790772 0)
(-0.145266 -0.13429 0)
(-0.14626 -0.188045 0)
(-0.143308 -0.237387 0)
(-0.133099 -0.276757 0)
(-0.112328 -0.296981 0)
(-0.0793553 -0.284627 0)
(-0.0393352 -0.222857 0)
(-0.00942832 -0.0966118 0)
(-0.0126998 0.117242 0)
(-0.0465062 0.255308 0)
(-0.0834937 0.311728 0)
(-0.106322 0.313566 0)
(-0.113295 0.284137 0)
(-0.10935 0.239138 0)
(-0.099829 0.1878 0)
(-0.0890924 0.134842 0)
(-0.0802845 0.082167 0)
(-0.0753904 0.0300724 0)
(-0.0753937 -0.0219532 0)
(-0.0803798 -0.0746837 0)
(-0.0895159 -0.128678 0)
(-0.100901 -0.183703 0)
(-0.111354 -0.237862 0)
(-0.116304 -0.286257 0)
(-0.110002 -0.319119 0)
(-0.0869991 -0.319696 0)
(-0.0487724 -0.263188 0)
(-0.0133648 -0.121177 0)
(-0.0185822 0.148237 0)
(-0.0578026 0.295686 0)
(-0.0864054 0.337096 0)
(-0.0905862 0.320181 0)
(-0.0757149 0.276642 0)
(-0.0514443 0.224037 0)
(-0.0252607 0.170782 0)
(-0.00214707 0.120032 0)
(0.014835 0.0722135 0)
(0.0239739 0.0264499 0)
(0.0244683 -0.0187087 0)
(0.0161995 -0.0648994 0)
(-0.000258333 -0.113659 0)
(-0.0233838 -0.166016 0)
(-0.0502157 -0.221709 0)
(-0.0756922 -0.277628 0)
(-0.0919675 -0.325039 0)
(-0.088737 -0.345374 0)
(-0.0599312 -0.305001 0)
(-0.0193499 -0.153572 0)
(-0.0261483 0.191106 0)
(-0.0672206 0.332213 0)
(-0.0730652 0.342523 0)
(-0.0448393 0.300782 0)
(0.00033342 0.244169 0)
(0.0486714 0.188269 0)
(0.0922718 0.13828 0)
(0.127075 0.094656 0)
(0.151212 0.0560272 0)
(0.163918 0.0204551 0)
(0.164899 -0.014139 0)
(0.15404 -0.0498827 0)
(0.131403 -0.0889497 0)
(0.0975001 -0.133469 0)
(0.0539589 -0.185085 0)
(0.00469511 -0.243621 0)
(-0.0422745 -0.303928 0)
(-0.0726558 -0.349761 0)
(-0.0682828 -0.341961 0)
(-0.0267555 -0.197774 0)
(-0.0286872 0.24893 0)
(-0.0581831 0.348491 0)
(-0.0153989 0.308216 0)
(0.0610698 0.242127 0)
(0.140367 0.180825 0)
(0.210128 0.130876 0)
(0.266177 0.0917428 0)
(0.307673 0.0607868 0)
(0.33512 0.0352454 0)
(0.349245 0.0127482 0)
(0.350478 -0.00875495 0)
(0.338756 -0.0312183 0)
(0.313506 -0.0567548 0)
(0.273792 -0.087879 0)
(0.218812 -0.127613 0)
(0.14906 -0.178993 0)
(0.0684366 -0.242968 0)
(-0.0106992 -0.312913 0)
(-0.0566128 -0.356739 0)
(-0.0283683 -0.256032 0)
(0.0132475 0.287614 0)
(0.0288537 0.301524 0)
(0.151503 0.213636 0)
(0.279686 0.142603 0)
(0.37992 0.0945409 0)
(0.454436 0.0626291 0)
(0.508329 0.041176 0)
(0.545515 0.026102 0)
(0.569001 0.0146989 0)
(0.580772 0.00519175 0)
(0.58179 -0.00370052 0)
(0.572064 -0.0131116 0)
(0.550631 -0.0243342 0)
(0.515446 -0.0391817 0)
(0.463323 -0.0604739 0)
(0.390007 -0.0925686 0)
(0.289908 -0.141665 0)
(0.160111 -0.215002 0)
(0.0342391 -0.305704 0)
(0.0158704 -0.292142 0)
(0.304279 0.146877 0)
(0.404862 0.127586 0)
(0.567544 0.074964 0)
(0.684225 0.0421605 0)
(0.752016 0.0241472 0)
(0.79345 0.0141632 0)
(0.820062 0.00846039 0)
(0.837038 0.00499811 0)
(0.847208 0.00267429 0)
(0.852114 0.000888216 0)
(0.852433 -0.000727617 0)
(0.848197 -0.00247165 0)
(0.838787 -0.00470295 0)
(0.822717 -0.00800688 0)
(0.797182 -0.013475 0)
(0.756965 -0.0231846 0)
(0.690407 -0.0410409 0)
(0.574191 -0.074104 0)
(0.409764 -0.127675 0)
(0.306599 -0.147726 0)
)
;

boundaryField
{
    movingWall
    {
        type            fixedValue;
        value           uniform (1 0 0);
    }
    fixedWalls
    {
        type            noSlip;
    }
    frontAndBack
    {
        type            empty;
    }
}


// ************************************************************************* //
