/*--------------------------------*- C++ -*----------------------------------*\
  =========                 |
  \\      /  F ield         | OpenFOAM: The Open Source CFD Toolbox
   \\    /   O peration     | Website:  https://openfoam.org
    \\  /    A nd           | Version:  6
     \\/     M anipulation  |
\*---------------------------------------------------------------------------*/
FoamFile
{
    version     2.0;
    format      ascii;
    class       volScalarField;
    location    "0.01";
    object      p;
}
// * * * * * * * * * * * * * * * * * * * * * * * * * * * * * * * * * * * * * //

dimensions      [0 2 -2 0 0 0 0];

internalField   nonuniform List<scalar> 
400
(
-2.098e-07
-0.0573616
-0.128674
-0.183564
-0.203843
-0.18139
-0.115638
-0.0114683
0.122532
0.275391
0.434788
0.587934
0.722411
0.827089
0.893223
0.915838
0.895522
0.840551
0.769291
0.712134
0.0564301
-0.00248856
-0.0584669
-0.0963184
-0.107019
-0.0848392
-0.0290732
0.0567433
0.166078
0.290373
0.419877
0.544418
0.654163
0.74042
0.796524
0.818859
0.808136
0.770197
0.71424
0.655538
0.13135
0.0498051
-0.0107726
-0.0457241
-0.054386
-0.0335887
0.0165847
0.0926991
0.189005
0.298147
0.411778
0.52119
0.617949
0.694554
0.745106
0.766066
0.757344
0.72221
0.661526
0.580124
0.200525
0.0876514
0.0122357
-0.0276895
-0.0383025
-0.0187077
0.0298224
0.103215
0.195657
0.300124
0.408819
0.513639
0.606677
0.680729
0.729782
0.749613
0.738913
0.698678
0.622974
0.510105
0.248106
0.101884
0.00857853
-0.0384755
-0.0513318
-0.0311315
0.0195225
0.0955773
0.190725
0.297817
0.409137
0.516722
0.612719
0.689741
0.741204
0.761831
0.748931
0.701453
0.607635
0.461194
0.262678
0.0821339
-0.0299663
-0.0839708
-0.097345
-0.0731929
-0.0156018
0.0691203
0.173846
0.29097
0.412526
0.530361
0.636331
0.722514
0.781401
0.806352
0.793104
0.73861
0.625722
0.444588
0.234271
0.0180404
-0.112687
-0.171686
-0.182007
-0.148919
-0.0782611
0.0221115
0.143985
0.279066
0.418934
0.555044
0.678746
0.781327
0.85405
0.888576
0.878756
0.819306
0.687469
0.470076
0.152086
-0.101861
-0.250048
-0.310153
-0.311748
-0.262835
-0.171449
-0.0473233
0.100035
0.261535
0.428258
0.591234
0.741249
0.868668
0.963281
1.01466
1.01426
0.953934
0.804301
0.548371
0.00264292
-0.291687
-0.454844
-0.509723
-0.494283
-0.420292
-0.298636
-0.141308
0.0407666
0.237756
0.440389
0.639458
0.825326
0.987466
1.11403
1.19205
1.20987
1.15533
0.990443
0.693036
-0.232032
-0.569781
-0.743181
-0.782915
-0.738495
-0.627082
-0.463301
-0.261783
-0.03485
0.207207
0.455191
0.700112
0.932332
1.1407
1.31172
1.42945
1.47811
1.43979
1.26457
0.922393
-0.576852
-0.960773
-1.13557
-1.14458
-1.05397
-0.888673
-0.668102
-0.409786
-0.12714
0.169721
0.472461
0.773153
1.06295
1.33073
1.56162
1.7364
1.834
1.82825
1.65194
1.26209
-1.06778
-1.49867
-1.65826
-1.61178
-1.45006
-1.20895
-0.913642
-0.58444
-0.235023
0.125823
0.491909
0.857697
1.21644
1.55824
1.86771
2.12245
2.29505
2.34772
2.18764
1.74937
-1.75969
-2.23176
-2.3447
-2.203
-1.93404
-1.58812
-1.19662
-0.781538
-0.355089
0.0771707
0.513109
0.951479
1.3896
1.82075
2.23088
2.59554
2.88054
3.03276
2.92154
2.4412
-2.74258
-3.23052
-3.23633
-2.93543
-2.5073
-2.0192
-1.50706
-0.991604
-0.48043
0.0270507
0.535359
1.05004
1.57513
2.11014
2.64569
3.15838
3.60896
3.92641
3.92639
3.43076
-4.17499
-4.59914
-4.37982
-3.81739
-3.15772
-2.4819
-1.82408
-1.19735
-0.599312
-0.019205
0.55732
1.14549
1.7593
2.40865
3.09439
3.80094
4.49056
5.07745
5.30935
4.88127
-6.34094
-6.48543
-5.81687
-4.83553
-3.84902
-2.93553
-2.11205
-1.37188
-0.694607
-0.0543004
0.576489
1.22541
1.91969
2.68475
3.53992
4.48995
5.51454
6.53011
7.22155
7.08285
-9.7495
-9.08056
-7.56497
-5.94381
-4.51614
-3.31827
-2.3221
-1.48119
-0.746063
-0.0703686
0.588912
1.2735
2.02635
2.8936
3.92423
5.1637
6.63774
8.30445
9.8572
10.551
-15.5357
-12.6261
-9.51942
-6.98736
-5.02008
-3.52325
-2.38101
-1.47986
-0.729352
-0.0596396
0.587405
1.2662
2.0349
2.96341
4.1422
5.68494
7.70687
10.2979
13.4625
16.4289
-26.657
-17.2738
-10.9859
-7.32559
-4.91285
-3.26373
-2.11469
-1.26812
-0.594169
-0.00784448
0.55448
1.15025
1.84314
2.71827
3.90577
5.60451
8.08063
11.8177
18.195
27.6802
-45.2719
-21.7514
-10.5266
-6.01519
-3.67239
-2.27575
-1.39479
-0.785564
-0.31513
0.0900595
0.479102
0.894624
1.38569
2.02571
2.94735
4.39608
6.80988
11.4184
22.7573
46.3926
)
;

boundaryField
{
    movingWall
    {
        type            zeroGradient;
    }
    fixedWalls
    {
        type            zeroGradient;
    }
    frontAndBack
    {
        type            empty;
    }
}


// ************************************************************************* //
