/*--------------------------------*- C++ -*----------------------------------*\
  =========                 |
  \\      /  F ield         | OpenFOAM: The Open Source CFD Toolbox
   \\    /   O peration     | Website:  https://openfoam.org
    \\  /    A nd           | Version:  6
     \\/     M anipulation  |
\*---------------------------------------------------------------------------*/
FoamFile
{
    version     2.0;
    format      ascii;
    class       volVectorField;
    location    "0.01";
    object      U;
}
// * * * * * * * * * * * * * * * * * * * * * * * * * * * * * * * * * * * * * //

dimensions      [0 1 -1 0 0 0 0];

internalField   nonuniform List<vector> 
400
(
(0.000253205 -0.000250324 0)
(0.000157928 0.000103855 0)
(-0.00112717 0.000557374 0)
(-0.00340238 0.000881913 0)
(-0.00627941 0.00104587 0)
(-0.00935518 0.00106109 0)
(-0.0122665 0.000952074 0)
(-0.014714 0.000747474 0)
(-0.0164724 0.000475861 0)
(-0.0173916 0.00016446 0)
(-0.017396 -0.000160556 0)
(-0.0164841 -0.000473235 0)
(-0.0147288 -0.000746938 0)
(-0.0122791 -0.000953653 0)
(-0.00936148 -0.00106399 0)
(-0.00627792 -0.00104871 0)
(-0.00339517 -0.000883297 0)
(-0.00111855 -0.000556746 0)
(0.000163188 -0.000102409 0)
(0.000255169 0.000251046 0)
(-6.56414e-05 -0.00018718 0)
(-0.0015439 0.00158961 0)
(-0.00553707 0.00355778 0)
(-0.0114823 0.00498801 0)
(-0.0185896 0.00570702 0)
(-0.0260363 0.00572098 0)
(-0.0330328 0.00511549 0)
(-0.0388999 0.00401437 0)
(-0.0431118 0.00255588 0)
(-0.0453123 0.000881707 0)
(-0.0453206 -0.000866259 0)
(-0.043134 -0.00254569 0)
(-0.0389282 -0.00401277 0)
(-0.0330573 -0.00512255 0)
(-0.026049 -0.00573339 0)
(-0.0185874 -0.00571913 0)
(-0.0114684 -0.00499421 0)
(-0.00551985 -0.00355552 0)
(-0.00153179 -0.00158208 0)
(-6.15756e-05 0.000193027 0)
(-0.00050321 0.00101935 0)
(-0.00359302 0.00557713 0)
(-0.0103384 0.0100539 0)
(-0.019623 0.0132621 0)
(-0.0302971 0.0148213 0)
(-0.0412585 0.0147072 0)
(-0.0514442 0.0130913 0)
(-0.0599318 0.0102526 0)
(-0.0660027 0.00652112 0)
(-0.0691685 0.0022469 0)
(-0.0691806 -0.00221305 0)
(-0.0660354 -0.0064988 0)
(-0.0599745 -0.0102492 0)
(-0.0514836 -0.0131071 0)
(-0.041283 -0.0147352 0)
(-0.0303012 -0.0148492 0)
(-0.0196095 -0.0132776 0)
(-0.0103177 -0.0100506 0)
(-0.00357754 -0.00556006 0)
(-0.000498061 -0.00100545 0)
(-0.000891382 0.00332548 0)
(-0.00553613 0.0119203 0)
(-0.014995 0.0196115 0)
(-0.0274872 0.0249333 0)
(-0.0414568 0.0273641 0)
(-0.0555464 0.0268882 0)
(-0.0684833 0.0238008 0)
(-0.0791773 0.01858 0)
(-0.0867878 0.0117965 0)
(-0.0907468 0.00406125 0)
(-0.0907658 -0.00399987 0)
(-0.0868399 -0.011755 0)
(-0.0792482 -0.0185712 0)
(-0.0685543 -0.0238261 0)
(-0.0555999 -0.0269364 0)
(-0.0414822 -0.0274147 0)
(-0.0274851 -0.0249646 0)
(-0.0149769 -0.0196109 0)
(-0.00551882 -0.0118935 0)
(-0.000884937 -0.0033007 0)
(-0.00123563 0.00662287 0)
(-0.00737253 0.0205024 0)
(-0.0195156 0.0320703 0)
(-0.035171 0.0397399 0)
(-0.0523285 0.0429647 0)
(-0.0693657 0.0418224 0)
(-0.0848248 0.0367965 0)
(-0.0974932 0.0286144 0)
(-0.106457 0.0181271 0)
(-0.111108 0.00623786 0)
(-0.111139 -0.00613146 0)
(-0.106545 -0.0180518 0)
(-0.0976168 -0.0285915 0)
(-0.0849568 -0.0368298 0)
(-0.0694784 -0.0418965 0)
(-0.0524022 -0.043049 0)
(-0.0352004 -0.0397997 0)
(-0.0195119 -0.0320823 0)
(-0.00735758 -0.02047 0)
(-0.00122844 -0.00658658 0)
(-0.00156648 0.0108605 0)
(-0.00919278 0.0313079 0)
(-0.0240504 0.0474503 0)
(-0.0428887 0.0576881 0)
(-0.0631994 0.0615791 0)
(-0.0830803 0.0594104 0)
(-0.100906 0.051945 0)
(-0.115378 0.040224 0)
(-0.125553 0.0254189 0)
(-0.130819 0.00874692 0)
(-0.13087 -0.00856476 0)
(-0.125698 -0.0252841 0)
(-0.115588 -0.04017 0)
(-0.101141 -0.0519811 0)
(-0.0832963 -0.0595174 0)
(-0.0633617 -0.0617141 0)
(-0.042981 -0.0577982 0)
(-0.0240802 -0.0474947 0)
(-0.00918797 -0.0312816 0)
(-0.00155986 -0.0108144 0)
(-0.00191429 0.0160509 0)
(-0.0110998 0.0443932 0)
(-0.0287739 0.065818 0)
(-0.0508552 0.0788055 0)
(-0.0742897 0.0831673 0)
(-0.096891 0.0795459 0)
(-0.116894 0.0691011 0)
(-0.132965 0.0532653 0)
(-0.144181 0.0335704 0)
(-0.14997 0.0115569 0)
(-0.150051 -0.0112515 0)
(-0.144411 -0.0333351 0)
(-0.133303 -0.053152 0)
(-0.117284 -0.0691287 0)
(-0.0972665 -0.0796931 0)
(-0.0745941 -0.0833766 0)
(-0.0510538 -0.0789997 0)
(-0.0288654 -0.0659287 0)
(-0.0111173 -0.0443965 0)
(-0.00191062 -0.0160019 0)
(-0.00230763 0.0222667 0)
(-0.013193 0.0598914 0)
(-0.0338462 0.0872783 0)
(-0.05923 0.103104 0)
(-0.085691 0.107627 0)
(-0.110774 0.102033 0)
(-0.132633 0.0880241 0)
(-0.149972 0.0675128 0)
(-0.161964 0.0424252 0)
(-0.168133 0.0146177 0)
(-0.168252 -0.0141231 0)
(-0.162305 -0.0420316 0)
(-0.150481 -0.0672981 0)
(-0.133233 -0.0880231 0)
(-0.111373 -0.102226 0)
(-0.086201 -0.10794 0)
(-0.0595893 -0.10343 0)
(-0.0340363 -0.0875065 0)
(-0.0132496 -0.0599637 0)
(-0.00231051 -0.022229 0)
(-0.00277641 0.0296367 0)
(-0.01557 0.0780058 0)
(-0.0394003 0.11195 0)
(-0.0680844 0.130529 0)
(-0.0973125 0.134719 0)
(-0.124414 0.126501 0)
(-0.147564 0.108297 0)
(-0.165624 0.0825932 0)
(-0.177968 0.0517294 0)
(-0.184287 0.0178446 0)
(-0.184452 -0.0170779 0)
(-0.17844 -0.0511031 0)
(-0.16634 -0.0822197 0)
(-0.148425 -0.108236 0)
(-0.125297 -0.12674 0)
(-0.0980949 -0.13517 0)
(-0.0686656 -0.131046 0)
(-0.0397339 -0.112367 0)
(-0.0156877 -0.0782069 0)
(-0.00279083 -0.0296352 0)
(-0.00335955 0.0383493 0)
(-0.0183429 0.0989963 0)
(-0.0455469 0.139914 0)
(-0.0773755 0.160867 0)
(-0.108821 0.163955 0)
(-0.137113 0.152289 0)
(-0.160625 0.129223 0)
(-0.178545 0.097904 0)
(-0.190586 0.06108 0)
(-0.196706 0.021099 0)
(-0.196917 -0.0199672 0)
(-0.191195 -0.0601349 0)
(-0.179481 -0.0973008 0)
(-0.161774 -0.129055 0)
(-0.138325 -0.152562 0)
(-0.109932 -0.164574 0)
(-0.0782384 -0.161645 0)
(-0.0460724 -0.140612 0)
(-0.0185477 -0.099409 0)
(-0.0033921 -0.0384218 0)
(-0.00411913 0.0486713 0)
(-0.0216656 0.123167 0)
(-0.0523809 0.171136 0)
(-0.0869039 0.193615 0)
(-0.119544 0.194439 0)
(-0.147663 0.178296 0)
(-0.1701 0.149702 0)
(-0.186605 0.112529 0)
(-0.197402 0.0698744 0)
(-0.202822 0.0241697 0)
(-0.203071 -0.022584 0)
(-0.198126 -0.068524 0)
(-0.187734 -0.111617 0)
(-0.171517 -0.149367 0)
(-0.149202 -0.178575 0)
(-0.121008 -0.195243 0)
(-0.0880912 -0.194721 0)
(-0.0531435 -0.17222 0)
(-0.0219866 -0.123898 0)
(-0.00417809 -0.0488714 0)
(-0.00516554 0.0609951 0)
(-0.0257764 0.150852 0)
(-0.0599741 0.20534 0)
(-0.0962194 0.227782 0)
(-0.128306 0.224666 0)
(-0.154138 0.20281 0)
(-0.173416 0.168115 0)
(-0.186743 0.125165 0)
(-0.195035 0.0772711 0)
(-0.19909 0.0267576 0)
(-0.199353 -0.024657 0)
(-0.195807 -0.0754486 0)
(-0.187973 -0.123871 0)
(-0.175004 -0.167539 0)
(-0.155927 -0.20304 0)
(-0.130081 -0.225643 0)
(-0.0977323 -0.229264 0)
(-0.0610021 -0.206916 0)
(-0.0262416 -0.152026 0)
(-0.00526088 -0.061394 0)
(-0.0067017 0.0759336 0)
(-0.0310507 0.182377 0)
(-0.0683098 0.241789 0)
(-0.104405 0.261594 0)
(-0.133111 0.252254 0)
(-0.153569 0.22333 0)
(-0.166865 0.182225 0)
(-0.174755 0.134084 0)
(-0.178986 0.082183 0)
(-0.180874 0.0284738 0)
(-0.18111 -0.0258575 0)
(-0.17969 -0.0798701 0)
(-0.17591 -0.132361 0)
(-0.168421 -0.181334 0)
(-0.155414 -0.223427 0)
(-0.135051 -0.25334 0)
(-0.106166 -0.263451 0)
(-0.0695919 -0.243935 0)
(-0.0316806 -0.184126 0)
(-0.00684477 -0.0766201 0)
(-0.00909245 0.0944836 0)
(-0.0380341 0.21793 0)
(-0.0770474 0.27887 0)
(-0.109595 0.292046 0)
(-0.130586 0.273628 0)
(-0.141449 0.236421 0)
(-0.145239 0.189171 0)
(-0.145081 0.137195 0)
(-0.143555 0.0833387 0)
(-0.142425 0.0288633 0)
(-0.142576 -0.0258274 0)
(-0.144023 -0.0806011 0)
(-0.145901 -0.135054 0)
(-0.146439 -0.18791 0)
(-0.143011 -0.236273 0)
(-0.132392 -0.274693 0)
(-0.1114 -0.294187 0)
(-0.0784964 -0.281593 0)
(-0.0388274 -0.220359 0)
(-0.00929441 -0.0955594 0)
(-0.012926 0.118241 0)
(-0.0472993 0.257148 0)
(-0.0848262 0.313344 0)
(-0.107942 0.314296 0)
(-0.114975 0.283763 0)
(-0.110985 0.237761 0)
(-0.101416 0.185682 0)
(-0.0906745 0.13229 0)
(-0.0819019 0.0794687 0)
(-0.0770496 0.0274758 0)
(-0.077051 -0.0242424 0)
(-0.0819404 -0.0764887 0)
(-0.090844 -0.129835 0)
(-0.101844 -0.184051 0)
(-0.111784 -0.237254 0)
(-0.116176 -0.284607 0)
(-0.10941 -0.316507 0)
(-0.0862246 -0.316517 0)
(-0.0482039 -0.260285 0)
(-0.0131918 -0.119807 0)
(-0.0188497 0.149713 0)
(-0.0585686 0.298099 0)
(-0.0873979 0.339021 0)
(-0.0915387 0.320961 0)
(-0.0765142 0.276196 0)
(-0.052144 0.222599 0)
(-0.0260027 0.168682 0)
(-0.00308001 0.117584 0)
(0.0136063 0.0696719 0)
(0.0224117 0.0240033 0)
(0.0226082 -0.0209198 0)
(0.0141485 -0.0667587 0)
(-0.00232992 -0.115046 0)
(-0.0252583 -0.166784 0)
(-0.0516589 -0.221672 0)
(-0.0765105 -0.276589 0)
(-0.0920946 -0.322896 0)
(-0.0883321 -0.342319 0)
(-0.059421 -0.301811 0)
(-0.0191575 -0.151839 0)
(-0.0263834 0.193033 0)
(-0.0676764 0.334893 0)
(-0.0732132 0.344346 0)
(-0.044564 0.301298 0)
(0.000903945 0.243524 0)
(0.049281 0.18682 0)
(0.0926449 0.13638 0)
(0.126995 0.0925745 0)
(0.15055 0.0539421 0)
(0.162632 0.0184733 0)
(0.163022 -0.0159565 0)
(0.151675 -0.0514937 0)
(0.128717 -0.0903007 0)
(0.0947246 -0.134463 0)
(0.0513832 -0.18555 0)
(0.0026362 -0.243304 0)
(-0.0435483 -0.30255 0)
(-0.0730562 -0.347231 0)
(-0.0681054 -0.338779 0)
(-0.026628 -0.195693 0)
(-0.0286655 0.251034 0)
(-0.0578491 0.35085 0)
(-0.0141914 0.309462 0)
(0.0629064 0.242166 0)
(0.142408 0.180018 0)
(0.211973 0.129619 0)
(0.267517 0.0903186 0)
(0.30832 0.0593591 0)
(0.334991 0.0338937 0)
(0.348332 0.0114987 0)
(0.348823 -0.00990648 0)
(0.336439 -0.0322881 0)
(0.310644 -0.0577514 0)
(0.27055 -0.0887776 0)
(0.215432 -0.128317 0)
(0.14587 -0.179285 0)
(0.0658398 -0.242499 0)
(-0.012321 -0.311334 0)
(-0.0572271 -0.354142 0)
(-0.0285404 -0.253871 0)
(0.013949 0.289045 0)
(0.0303565 0.302849 0)
(0.153991 0.214061 0)
(0.282561 0.142278 0)
(0.382628 0.0938596 0)
(0.456647 0.0618685 0)
(0.509873 0.0404628 0)
(0.546336 0.0254755 0)
(0.569115 0.0141592 0)
(0.580223 0.00472181 0)
(0.580629 -0.00412699 0)
(0.570336 -0.0135262 0)
(0.548376 -0.0247705 0)
(0.51271 -0.0396672 0)
(0.460191 -0.0610082 0)
(0.386651 -0.0930714 0)
(0.286639 -0.141902 0)
(0.157426 -0.214606 0)
(0.0325051 -0.304519 0)
(0.0149956 -0.290856 0)
(0.304915 0.147207 0)
(0.406255 0.127709 0)
(0.569508 0.0747591 0)
(0.68604 0.0418371 0)
(0.75342 0.0238455 0)
(0.794431 0.0139319 0)
(0.820657 0.00829746 0)
(0.837304 0.00488698 0)
(0.847203 0.00259876 0)
(0.851885 0.000834881 0)
(0.852012 -0.000770874 0)
(0.847598 -0.00251805 0)
(0.838002 -0.00476942 0)
(0.821716 -0.00811666 0)
(0.79592 -0.0136571 0)
(0.755395 -0.0234607 0)
(0.688509 -0.0413893 0)
(0.572163 -0.0744151 0)
(0.408213 -0.127745 0)
(0.305841 -0.147547 0)
)
;

boundaryField
{
    movingWall
    {
        type            fixedValue;
        value           uniform (1 0 0);
    }
    fixedWalls
    {
        type            noSlip;
    }
    frontAndBack
    {
        type            empty;
    }
}


// ************************************************************************* //
