/*--------------------------------*- C++ -*----------------------------------*\
  =========                 |
  \\      /  F ield         | OpenFOAM: The Open Source CFD Toolbox
   \\    /   O peration     | Website:  https://openfoam.org
    \\  /    A nd           | Version:  6
     \\/     M anipulation  |
\*---------------------------------------------------------------------------*/
FoamFile
{
    version     2.0;
    format      ascii;
    class       surfaceScalarField;
    location    "0.1";
    object      phi;
}
// * * * * * * * * * * * * * * * * * * * * * * * * * * * * * * * * * * * * * //

dimensions      [0 3 -1 0 0 0 0];

internalField   nonuniform List<scalar> 
760
(
-3.11312e-09
3.11291e-09
-4.6117e-08
4.30039e-08
-1.1715e-07
7.10332e-08
-2.00059e-07
8.29087e-08
-2.83667e-07
8.36076e-08
-3.61044e-07
7.73773e-08
-4.2787e-07
6.6826e-08
-4.81155e-07
5.32856e-08
-5.18484e-07
3.73281e-08
-5.3771e-07
1.92266e-08
-5.36974e-07
-7.36533e-10
-5.14901e-07
-2.20722e-08
-4.70978e-07
-4.39233e-08
-4.06096e-07
-6.48819e-08
-3.23331e-07
-8.27653e-08
-2.28923e-07
-9.44081e-08
-1.33279e-07
-9.56441e-08
-5.16447e-08
-8.16343e-08
-3.23097e-09
-4.84137e-08
-3.23095e-09
-4.33445e-08
4.64575e-08
-1.60957e-07
1.60616e-07
-3.27961e-07
2.38037e-07
-5.17197e-07
2.72144e-07
-7.07046e-07
2.73457e-07
-8.82465e-07
2.52797e-07
-1.0333e-06
2.1766e-07
-1.15234e-06
1.7233e-07
-1.23403e-06
1.19011e-07
-1.2738e-06
5.89982e-08
-1.26807e-06
-6.45971e-09
-1.21459e-06
-7.55565e-08
-1.1131e-06
-1.45418e-07
-9.66422e-07
-2.11556e-07
-7.81912e-07
-2.67276e-07
-5.73088e-07
-3.03232e-07
-3.6105e-07
-3.07682e-07
-1.74452e-07
-2.68233e-07
-4.5652e-08
-1.77213e-07
-4.8883e-08
-7.59679e-08
1.22425e-07
-2.53217e-07
3.37866e-07
-4.90765e-07
4.75585e-07
-7.53524e-07
5.34904e-07
-1.01436e-06
5.34288e-07
-1.25404e-06
4.92484e-07
-1.45929e-06
4.22907e-07
-1.62053e-06
3.33567e-07
-1.73038e-06
2.28868e-07
-1.78295e-06
1.1156e-07
-1.77365e-06
-1.57572e-08
-1.69969e-06
-1.49517e-07
-1.56089e-06
-2.84215e-07
-1.36107e-06
-4.11378e-07
-1.10984e-06
-5.18506e-07
-8.2467e-07
-5.88399e-07
-5.3252e-07
-5.99831e-07
-2.69713e-07
-5.3104e-07
-7.83157e-08
-3.68611e-07
-1.27199e-07
-9.81119e-08
2.20537e-07
-3.20887e-07
5.6064e-07
-6.1285e-07
7.67549e-07
-9.31071e-07
8.53125e-07
-1.2442e-06
8.47416e-07
-1.53058e-06
7.7886e-07
-1.77533e-06
6.67658e-07
-1.96772e-06
5.2596e-07
-2.0994e-06
3.60548e-07
-2.16352e-06
1.75684e-07
-2.1546e-06
-2.46778e-08
-2.06893e-06
-2.35185e-07
-1.90563e-06
-4.47519e-07
-1.66829e-06
-6.48717e-07
-1.36733e-06
-8.19467e-07
-1.02265e-06
-9.33082e-07
-6.65863e-07
-9.56616e-07
-3.40686e-07
-8.56217e-07
-9.99103e-08
-6.09387e-07
-2.27109e-07
-1.14832e-07
3.35369e-07
-3.75078e-07
8.20887e-07
-7.13276e-07
1.10575e-06
-1.07889e-06
1.21874e-06
-1.43666e-06
1.20518e-06
-1.76307e-06
1.10527e-06
-2.04241e-06
9.46994e-07
-2.26339e-06
7.4694e-07
-2.41706e-06
5.14225e-07
-2.49574e-06
2.54364e-07
-2.49271e-06
-2.77094e-08
-2.40267e-06
-3.25229e-07
-2.22294e-06
-6.27251e-07
-1.95562e-06
-9.16037e-07
-1.61072e-06
-1.16436e-06
-1.20997e-06
-1.33383e-06
-7.90139e-07
-1.37645e-06
-4.04105e-07
-1.24225e-06
-1.17427e-07
-8.96065e-07
-3.44536e-07
-1.30494e-07
4.65863e-07
-4.26917e-07
1.11731e-06
-8.10596e-07
1.48943e-06
-1.2233e-06
1.63144e-06
-1.62574e-06
1.60762e-06
-1.99281e-06
1.47234e-06
-2.3083e-06
1.26249e-06
-2.56078e-06
9.99421e-07
-2.74094e-06
6.94382e-07
-2.84018e-06
3.53602e-07
-2.85012e-06
-1.77612e-08
-2.76299e-06
-4.12362e-07
-2.57296e-06
-8.1728e-07
-2.27899e-06
-1.21001e-06
-1.88918e-06
-1.55417e-06
-1.42645e-06
-1.79657e-06
-9.33785e-07
-1.86911e-06
-4.76389e-07
-1.69965e-06
-1.36695e-07
-1.23576e-06
-4.81231e-07
-1.48203e-07
6.14066e-07
-4.84996e-07
1.4541e-06
-9.19254e-07
1.92368e-06
-1.38422e-06
2.09641e-06
-1.83633e-06
2.05973e-06
-2.24901e-06
1.88502e-06
-2.60597e-06
1.61945e-06
-2.89608e-06
1.28953e-06
-3.10998e-06
9.0828e-07
-3.23823e-06
4.81857e-07
-3.27044e-06
1.44488e-08
-3.19534e-06
-4.87461e-07
-3.00228e-06
-1.01035e-06
-2.6847e-06
-1.52759e-06
-2.2463e-06
-1.99257e-06
-1.70955e-06
-2.33332e-06
-1.12453e-06
-2.45413e-06
-5.73262e-07
-2.25092e-06
-1.62614e-07
-1.64641e-06
-6.43845e-07
-1.70184e-07
7.8425e-07
-5.55691e-07
1.83961e-06
-1.04985e-06
2.41784e-06
-1.57578e-06
2.62235e-06
-2.08523e-06
2.56918e-06
-2.55048e-06
2.35028e-06
-2.95585e-06
2.02482e-06
-3.2912e-06
1.62488e-06
-3.54782e-06
1.16489e-06
-3.71582e-06
6.49858e-07
-3.78269e-06
8.13163e-08
-3.73278e-06
-5.37364e-07
-3.54856e-06
-1.19457e-06
-3.21457e-06
-1.86157e-06
-2.72578e-06
-2.48136e-06
-2.10036e-06
-2.95874e-06
-1.39476e-06
-3.15973e-06
-7.13547e-07
-2.93213e-06
-2.00823e-07
-2.15913e-06
-8.44669e-07
-1.98352e-07
9.82602e-07
-6.44384e-07
2.28564e-06
-1.21087e-06
2.98432e-06
-1.80845e-06
3.21993e-06
-2.38378e-06
3.14451e-06
-2.90869e-06
2.87519e-06
-3.36917e-06
2.4853e-06
-3.75734e-06
2.01304e-06
-4.06627e-06
1.47383e-06
-4.28667e-06
8.70259e-07
-4.40442e-06
1.99069e-07
-4.39906e-06
-5.42726e-07
-4.24398e-06
-1.34965e-06
-3.91034e-06
-2.19521e-06
-3.37734e-06
-3.01436e-06
-2.6509e-06
-3.68517e-06
-1.78931e-06
-4.02132e-06
-9.25264e-07
-3.79618e-06
-2.60229e-07
-2.82417e-06
-1.1049e-06
-2.35004e-07
1.21761e-06
-7.56998e-07
2.80764e-06
-1.41078e-06
3.63811e-06
-2.09136e-06
3.9005e-06
-2.74021e-06
3.79335e-06
-3.32994e-06
3.46492e-06
-3.84991e-06
3.00527e-06
-4.29629e-06
2.45943e-06
-4.66588e-06
1.84341e-06
-4.95181e-06
1.15619e-06
-5.13997e-06
3.87227e-07
-5.20567e-06
-4.77024e-07
-5.11176e-06
-1.44357e-06
-4.8108e-06
-2.49617e-06
-4.25614e-06
-3.56902e-06
-3.42741e-06
-4.5139e-06
-2.37225e-06
-5.07649e-06
-1.25293e-06
-4.91549e-06
-3.5665e-07
-3.72045e-06
-1.46155e-06
-2.83675e-07
1.50128e-06
-9.01661e-07
3.42562e-06
-1.65982e-06
4.39627e-06
-2.43376e-06
4.67444e-06
-3.16039e-06
4.51998e-06
-3.81525e-06
4.11978e-06
-4.39348e-06
3.5835e-06
-4.89775e-06
2.96369e-06
-5.33115e-06
2.27682e-06
-5.6922e-06
1.51724e-06
-5.96982e-06
6.64851e-07
-6.1377e-06
-3.09144e-07
-6.14866e-06
-1.43261e-06
-5.93257e-06
-2.71227e-06
-5.40508e-06
-4.0965e-06
-4.49835e-06
-5.42064e-06
-3.22405e-06
-6.35078e-06
-1.76231e-06
-6.37723e-06
-5.17385e-07
-4.96537e-06
-1.97893e-06
-3.50357e-07
1.85164e-06
-1.09055e-06
4.16581e-06
-1.97116e-06
5.27688e-06
-2.84461e-06
5.5479e-06
-3.64554e-06
5.32091e-06
-4.35595e-06
4.83019e-06
-4.97993e-06
4.20748e-06
-5.52955e-06
3.51331e-06
-6.01732e-06
2.76459e-06
-6.45085e-06
1.95077e-06
-6.82678e-06
1.04078e-06
-7.12241e-06
-1.35109e-08
-7.28509e-06
-1.26994e-06
-7.22252e-06
-2.77483e-06
-6.80367e-06
-4.51535e-06
-5.88861e-06
-6.3357e-06
-4.41215e-06
-7.82725e-06
-2.53276e-06
-8.25662e-06
-7.85086e-07
-6.71305e-06
-2.76402e-06
-4.45502e-07
2.29714e-06
-1.34186e-06
5.06217e-06
-2.36026e-06
6.29528e-06
-3.32803e-06
6.51567e-06
-4.18339e-06
6.17627e-06
-4.92056e-06
5.56736e-06
-5.55665e-06
4.84357e-06
-6.11621e-06
4.07288e-06
-6.62411e-06
3.27249e-06
-7.10074e-06
2.42739e-06
-7.5558e-06
1.49584e-06
-7.97808e-06
4.08773e-07
-8.31963e-06
-9.28385e-07
-8.47613e-06
-2.61834e-06
-8.27314e-06
-4.71833e-06
-7.48265e-06
-7.12619e-06
-5.91291e-06
-9.39698e-06
-3.61914e-06
-1.05504e-05
-1.2161e-06
-9.11608e-06
-3.98013e-06
-5.87534e-07
2.88467e-06
-1.68133e-06
6.15596e-06
-2.83912e-06
7.45307e-06
-3.86854e-06
7.54509e-06
-4.7249e-06
7.03263e-06
-5.42409e-06
6.26655e-06
-6.00164e-06
5.42113e-06
-6.49752e-06
4.56876e-06
-6.95075e-06
3.72572e-06
-7.39643e-06
2.87307e-06
-7.86121e-06
1.96061e-06
-8.35355e-06
9.01115e-07
-8.84552e-06
-4.36414e-07
-9.2443e-06
-2.21956e-06
-9.35924e-06
-4.60339e-06
-8.88817e-06
-7.59726e-06
-7.47893e-06
-1.08062e-05
-4.96294e-06
-1.30664e-05
-1.86129e-06
-1.22177e-05
-5.84142e-06
-8.0906e-07
3.69373e-06
-2.14056e-06
7.48747e-06
-3.39649e-06
8.709e-06
-4.39243e-06
8.54103e-06
-5.12999e-06
7.77019e-06
-5.66283e-06
6.79939e-06
-6.05237e-06
5.81066e-06
-6.3565e-06
4.87289e-06
-6.62782e-06
3.99703e-06
-6.91407e-06
3.15933e-06
-7.25758e-06
2.30413e-06
-7.69032e-06
1.33385e-06
-8.21954e-06
9.28041e-08
-8.79782e-06
-1.64128e-06
-9.27412e-06
-4.1271e-06
-9.33658e-06
-7.5348e-06
-8.49615e-06
-1.16466e-05
-6.24779e-06
-1.53148e-05
-2.70299e-06
-1.57625e-05
-8.54441e-06
-1.16582e-06
4.85956e-06
-2.74059e-06
9.06223e-06
-3.93825e-06
9.90665e-06
-4.67242e-06
9.27521e-06
-5.05029e-06
8.14806e-06
-5.18838e-06
6.93748e-06
-5.18251e-06
5.80479e-06
-5.10844e-06
4.79882e-06
-5.02701e-06
3.9156e-06
-4.99004e-06
3.12236e-06
-5.04609e-06
2.36017e-06
-5.24416e-06
1.53193e-06
-5.63124e-06
4.79876e-07
-6.23401e-06
-1.03851e-06
-7.00974e-06
-3.35136e-06
-7.75053e-06
-6.79401e-06
-7.94898e-06
-1.14482e-05
-6.75474e-06
-1.6509e-05
-3.51943e-06
-1.89978e-05
-1.20638e-05
-1.73914e-06
6.59869e-06
-3.4039e-06
1.0727e-05
-4.10454e-06
1.06073e-05
-4.09583e-06
9.2665e-06
-3.68973e-06
7.74196e-06
-3.08834e-06
6.33609e-06
-2.41769e-06
5.13414e-06
-1.75814e-06
4.13927e-06
-1.16245e-06
3.31991e-06
-6.69405e-07
2.62931e-06
-3.16208e-07
2.00698e-06
-1.51191e-07
1.36691e-06
-2.46404e-07
5.75089e-07
-7.03071e-07
-5.81838e-07
-1.62832e-06
-2.42611e-06
-3.03828e-06
-5.38406e-06
-4.61995e-06
-9.86651e-06
-5.37404e-06
-1.57549e-05
-3.73022e-06
-2.06416e-05
-1.57941e-05
-2.5651e-06
9.1638e-06
-3.52222e-06
1.16841e-05
-2.67288e-06
9.75796e-06
-1.09117e-06
7.68478e-06
6.56994e-07
5.9938e-06
2.34483e-06
4.64825e-06
3.8785e-06
3.60047e-06
5.22087e-06
2.7969e-06
6.36242e-06
2.17837e-06
7.30284e-06
1.68889e-06
8.03605e-06
1.27376e-06
8.53415e-06
8.68813e-07
8.7258e-06
3.8344e-07
8.46855e-06
-3.24593e-07
7.52819e-06
-1.48575e-06
5.6146e-06
-3.47047e-06
2.60976e-06
-6.86167e-06
-8.04855e-07
-1.23403e-05
-2.38912e-06
-1.90574e-05
-1.81832e-05
-2.55942e-06
1.17232e-05
1.36481e-07
8.98821e-06
4.2904e-06
5.60404e-06
8.09559e-06
3.87959e-06
1.12952e-05
2.79421e-06
1.39304e-05
2.01307e-06
1.60734e-05
1.45745e-06
1.78016e-05
1.0687e-06
1.91866e-05
7.93305e-07
2.02849e-05
5.90679e-07
2.11297e-05
4.28949e-07
2.17213e-05
2.77167e-07
2.20077e-05
9.70658e-08
2.18503e-05
-1.6725e-07
2.09717e-05
-6.07072e-07
1.88946e-05
-1.39343e-06
1.49704e-05
-2.93743e-06
8.83894e-06
-6.20886e-06
2.02411e-06
-1.22425e-05
-1.61591e-05
1.17232e-05
2.07114e-05
2.63155e-05
3.01951e-05
3.29893e-05
3.50023e-05
3.64598e-05
3.75285e-05
3.83218e-05
3.89125e-05
3.93414e-05
3.96186e-05
3.97157e-05
3.95484e-05
3.89413e-05
3.75479e-05
3.46105e-05
2.84016e-05
1.61591e-05
)
;

boundaryField
{
    movingWall
    {
        type            calculated;
        value           uniform 0;
    }
    fixedWalls
    {
        type            calculated;
        value           uniform 0;
    }
    frontAndBack
    {
        type            empty;
        value           nonuniform 0();
    }
}


// ************************************************************************* //
