/*--------------------------------*- C++ -*----------------------------------*\
  =========                 |
  \\      /  F ield         | OpenFOAM: The Open Source CFD Toolbox
   \\    /   O peration     | Website:  https://openfoam.org
    \\  /    A nd           | Version:  6
     \\/     M anipulation  |
\*---------------------------------------------------------------------------*/
FoamFile
{
    version     2.0;
    format      ascii;
    class       volScalarField;
    location    "0.04";
    object      p;
}
// * * * * * * * * * * * * * * * * * * * * * * * * * * * * * * * * * * * * * //

dimensions      [0 2 -2 0 0 0 0];

internalField   nonuniform List<scalar> 
400
(
5.2585e-08
-0.00486448
-0.0105977
-0.014597
-0.0154547
-0.0125906
-0.00601808
0.00383527
0.0162628
0.0303693
0.0451341
0.0594677
0.0722731
0.0825275
0.0893895
0.0923409
0.0913618
0.0871234
0.0811933
0.0762935
0.00480423
-0.000206806
-0.00467542
-0.00730664
-0.00743652
-0.00465008
0.00107299
0.00942183
0.0198513
0.031648
0.0439836
0.0559682
0.0667102
0.0753906
0.0813522
0.0842081
0.0839713
0.0811295
0.0764849
0.0714532
0.0108944
0.00394831
-0.000927506
-0.00333795
-0.00332295
-0.000669767
0.00458834
0.0121562
0.0215551
0.0321671
0.0432712
0.054087
0.0638266
0.0717585
0.0772821
0.0800146
0.079907
0.0772427
0.0721342
0.0651347
0.0161312
0.00652689
0.000390067
-0.00244298
-0.00259579
-4.27539e-05
0.00509305
0.0124741
0.0216249
0.0319587
0.0427967
0.0533981
0.0630013
0.0708774
0.0763928
0.0790884
0.0788039
0.0756362
0.0691455
0.0593894
0.0192101
0.0067483
-0.000923888
-0.00436919
-0.00472082
-0.00212161
0.0032062
0.0108587
0.020333
0.0310397
0.0423061
0.0533913
0.0635153
0.0719022
0.0778331
0.0807247
0.0802768
0.0764096
0.0682043
0.0554018
0.0191678
0.00368716
-0.00564355
-0.00971574
-0.0101476
-0.00724464
-0.00133673
0.00708866
0.0174801
0.029223
0.0416255
0.0539186
0.0652708
0.0748188
0.0817123
0.0851964
0.084794
0.0802348
0.0701318
0.0539914
0.0151127
-0.00362102
-0.0146698
-0.019256
-0.0195173
-0.0159376
-0.00897053
0.000796578
0.0127494
0.0262352
0.0405304
0.0548219
0.0682042
0.0796944
0.0882656
0.0929352
0.092992
0.0879245
0.07581
0.0559201
0.00602758
-0.0162767
-0.0290404
-0.0338887
-0.0335787
-0.0288175
-0.0202094
-0.00845828
0.00575144
0.0217289
0.0387212
0.0558721
0.0721955
0.0865677
0.0977423
0.104441
0.105632
0.100463
0.0863129
0.0621324
-0.00939393
-0.0356537
-0.0500337
-0.0547085
-0.0532337
-0.046618
-0.0356576
-0.0211906
-0.00396923
0.0152925
0.0358346
0.0567809
0.0770798
0.0954636
0.110431
0.120328
0.123685
0.11914
0.103089
0.0739765
-0.0329017
-0.0635341
-0.0792493
-0.0830308
-0.0795156
-0.0701385
-0.0559428
-0.0379171
-0.0168667
0.00650671
0.0314835
0.0572193
0.0826451
0.106376
0.12664
0.14133
0.148378
0.145666
0.128158
0.0934416
-0.066889
-0.102279
-0.118693
-0.120385
-0.113517
-0.100129
-0.0815804
-0.0590164
-0.0332603
-0.00493942
0.0253468
0.0568771
0.0886568
0.11926
0.146676
0.168281
0.181238
0.182319
0.164367
0.123479
-0.114729
-0.155086
-0.170874
-0.168467
-0.156244
-0.137093
-0.112754
-0.0845084
-0.053127
-0.0190626
0.0173262
0.0555789
0.0949275
0.134056
0.170822
0.202104
0.224128
0.232115
0.215762
0.168516
-0.181443
-0.226409
-0.238895
-0.228995
-0.208348
-0.180969
-0.14899
-0.113747
-0.075823
-0.0353404
0.00775172
0.0534456
0.101421
0.150721
0.199319
0.243746
0.279246
0.299008
0.288149
0.235376
-0.27513
-0.322665
-0.326473
-0.303369
-0.269651
-0.230639
-0.18872
-0.145053
-0.0997814
-0.0524671
-0.0024232
0.0510367
0.10833
0.169224
0.232242
0.293998
0.348981
0.388041
0.389968
0.335104
-0.410051
-0.453302
-0.437614
-0.39184
-0.338272
-0.283205
-0.228746
-0.175351
-0.122294
-0.0682349
-0.0115745
0.0493383
0.115991
0.189342
0.269136
0.352927
0.435297
0.505137
0.533487
0.486511
-0.612216
-0.631866
-0.575575
-0.49216
-0.409499
-0.333239
-0.263866
-0.200097
-0.139627
-0.0797612
-0.0176911
0.0494486
0.124528
0.210213
0.308377
0.418975
0.538586
0.656075
0.735572
0.721742
-0.929656
-0.876187
-0.741019
-0.598519
-0.475409
-0.372928
-0.287426
-0.21406
-0.147889
-0.0843475
-0.019172
0.0518651
0.133226
0.229765
0.346589
0.48823
0.656461
0.84448
1.0174
1.09558
-1.47204
-1.20859
-0.922665
-0.694702
-0.521192
-0.390596
-0.291193
-0.211931
-0.144013
-0.080655
-0.016164
0.0549087
0.138534
0.241993
0.37474
0.548643
0.775356
1.06218
1.40684
1.72688
-2.53226
-1.64168
-1.05049
-0.717002
-0.502475
-0.357983
-0.258349
-0.184569
-0.124003
-0.0684012
-0.0115659
0.0522077
0.129398
0.228785
0.363842
0.555436
0.831881
1.24206
1.92333
2.9156
-4.35193
-2.05255
-0.980833
-0.572318
-0.36856
-0.250332
-0.178023
-0.128232
-0.087851
-0.0497224
-0.00912631
0.0381023
0.0968889
0.174673
0.284874
0.452989
0.726527
1.23212
2.41844
4.83222
)
;

boundaryField
{
    movingWall
    {
        type            zeroGradient;
    }
    fixedWalls
    {
        type            zeroGradient;
    }
    frontAndBack
    {
        type            empty;
    }
}


// ************************************************************************* //
