/*--------------------------------*- C++ -*----------------------------------*\
  =========                 |
  \\      /  F ield         | OpenFOAM: The Open Source CFD Toolbox
   \\    /   O peration     | Website:  https://openfoam.org
    \\  /    A nd           | Version:  6
     \\/     M anipulation  |
\*---------------------------------------------------------------------------*/
FoamFile
{
    version     2.0;
    format      ascii;
    class       surfaceScalarField;
    location    "0.04";
    object      phi;
}
// * * * * * * * * * * * * * * * * * * * * * * * * * * * * * * * * * * * * * //

dimensions      [0 3 -1 0 0 0 0];

internalField   nonuniform List<scalar> 
760
(
1.02969e-08
-1.02971e-08
-2.34761e-08
3.37729e-08
-1.03656e-07
8.01803e-08
-2.15377e-07
1.1172e-07
-3.41794e-07
1.26417e-07
-4.6745e-07
1.25657e-07
-5.79391e-07
1.11941e-07
-6.67491e-07
8.80997e-08
-7.24402e-07
5.69106e-08
-7.45439e-07
2.10376e-08
-7.28577e-07
-1.68625e-08
-6.74588e-07
-5.39881e-08
-5.87319e-07
-8.72692e-08
-4.73988e-07
-1.13331e-07
-3.45379e-07
-1.28609e-07
-2.15695e-07
-1.29685e-07
-1.0175e-07
-1.13945e-07
-2.12207e-08
-8.05292e-08
1.13567e-08
-3.25775e-08
1.13568e-08
-3.16623e-08
2.13653e-08
-1.58699e-07
1.6081e-07
-3.74643e-07
2.96125e-07
-6.52381e-07
3.8946e-07
-9.58386e-07
4.32421e-07
-1.25962e-06
4.26893e-07
-1.52702e-06
3.79335e-07
-1.73706e-06
2.98141e-07
-1.87236e-06
1.92216e-07
-1.92185e-06
7.05288e-08
-1.88092e-06
-5.77934e-08
-1.75176e-06
-1.83154e-07
-1.54379e-06
-2.95233e-07
-1.2741e-06
-3.83022e-07
-9.6737e-07
-4.35342e-07
-6.54957e-07
-4.42097e-07
-3.72453e-07
-3.96449e-07
-1.5506e-07
-2.97922e-07
-2.96324e-08
-1.58005e-07
-1.82754e-08
-7.98475e-08
1.01213e-07
-3.05378e-07
3.8634e-07
-6.49088e-07
6.39834e-07
-1.0704e-06
8.10776e-07
-1.52353e-06
8.85548e-07
-1.96383e-06
8.67193e-07
-2.35183e-06
7.6733e-07
-2.65534e-06
6.01658e-07
-2.85046e-06
3.87331e-07
-2.92188e-06
1.41951e-07
-2.86326e-06
-1.16417e-07
-2.6776e-06
-3.68806e-07
-2.37787e-06
-5.94963e-07
-1.98739e-06
-7.73503e-07
-1.53972e-06
-8.83011e-07
-1.07734e-06
-9.04485e-07
-6.48431e-07
-8.25355e-07
-3.01456e-07
-6.44897e-07
-7.72191e-08
-3.82242e-07
-9.54943e-08
-1.23462e-07
2.24675e-07
-4.45392e-07
7.08269e-07
-9.13803e-07
1.10825e-06
-1.47122e-06
1.36819e-06
-2.05925e-06
1.47357e-06
-2.62341e-06
1.43135e-06
-3.11652e-06
1.26044e-06
-3.50052e-06
9.85665e-07
-3.74723e-06
6.34036e-07
-3.83856e-06
2.33278e-07
-3.76679e-06
-1.88186e-07
-3.53506e-06
-6.00534e-07
-3.1581e-06
-9.71918e-07
-2.66297e-06
-1.26864e-06
-2.08919e-06
-1.45679e-06
-1.48773e-06
-1.50594e-06
-9.18013e-07
-1.39507e-06
-4.42667e-07
-1.12024e-06
-1.20507e-07
-7.04401e-07
-2.16001e-07
-1.64376e-07
3.89051e-07
-5.82042e-07
1.12594e-06
-1.176e-06
1.7022e-06
-1.86941e-06
2.0616e-06
-2.58991e-06
2.19407e-06
-3.27336e-06
2.11481e-06
-3.86612e-06
1.8532e-06
-4.32588e-06
1.44543e-06
-4.62168e-06
9.29839e-07
-4.7336e-06
3.45192e-07
-4.65267e-06
-2.69118e-07
-4.38139e-06
-8.71814e-07
-3.93476e-06
-1.41854e-06
-3.34162e-06
-1.86178e-06
-2.64565e-06
-2.15276e-06
-1.90527e-06
-2.24631e-06
-1.19158e-06
-2.10877e-06
-5.83669e-07
-1.72815e-06
-1.61854e-07
-1.12622e-06
-3.77855e-07
-2.05869e-07
5.9492e-07
-7.22838e-07
1.6429e-06
-1.44765e-06
2.42701e-06
-2.2818e-06
2.89575e-06
-3.13749e-06
3.04976e-06
-3.94071e-06
2.91803e-06
-4.63217e-06
2.54466e-06
-5.16667e-06
1.97993e-06
-5.51178e-06
1.27495e-06
-5.64651e-06
4.79924e-07
-5.5607e-06
-3.54933e-07
-5.25538e-06
-1.17713e-06
-4.74429e-06
-1.92964e-06
-4.05612e-06
-2.54994e-06
-3.23704e-06
-2.97185e-06
-2.35217e-06
-3.13118e-06
-1.48516e-06
-2.97579e-06
-7.34318e-07
-2.47899e-06
-2.05307e-07
-1.65523e-06
-5.83162e-07
-2.51073e-07
8.45993e-07
-8.75514e-07
2.26735e-06
-1.74039e-06
3.29188e-06
-2.72265e-06
3.87801e-06
-3.71761e-06
4.04472e-06
-4.6415e-06
3.84192e-06
-5.43063e-06
3.33378e-06
-6.03864e-06
2.58794e-06
-6.43323e-06
1.66954e-06
-6.5934e-06
6.40092e-07
-6.5079e-06
-4.40429e-07
-6.17544e-06
-1.5096e-06
-5.60664e-06
-2.49843e-06
-4.82768e-06
-3.3289e-06
-3.88477e-06
-3.91476e-06
-2.84835e-06
-4.1676e-06
-1.815e-06
-4.00914e-06
-9.05174e-07
-3.38881e-06
-2.54969e-07
-2.30543e-06
-8.38131e-07
-3.02757e-07
1.14875e-06
-1.04681e-06
3.01139e-06
-2.06328e-06
4.30835e-06
-3.20064e-06
5.01538e-06
-4.33612e-06
5.1802e-06
-5.37719e-06
4.88299e-06
-6.25808e-06
4.21468e-06
-6.93402e-06
3.26388e-06
-7.3753e-06
2.11082e-06
-7.56251e-06
8.27305e-07
-7.48379e-06
-5.19149e-07
-7.13459e-06
-1.8588e-06
-6.52018e-06
-3.11284e-06
-5.66085e-06
-4.18824e-06
-4.59911e-06
-4.9765e-06
-3.40757e-06
-5.35914e-06
-2.19482e-06
-5.22188e-06
-1.10611e-06
-4.47753e-06
-3.14769e-07
-3.09678e-06
-1.1529e-06
-3.63434e-07
1.51218e-06
-1.24214e-06
3.8901e-06
-2.42154e-06
5.48775e-06
-3.7165e-06
6.31034e-06
-4.98561e-06
6.44931e-06
-6.13023e-06
6.02761e-06
-7.08662e-06
5.17107e-06
-7.81594e-06
3.99319e-06
-8.29475e-06
2.58964e-06
-8.50777e-06
1.04032e-06
-8.44349e-06
-5.83427e-07
-8.09335e-06
-2.20893e-06
-7.45458e-06
-3.75161e-06
-6.53704e-06
-5.10578e-06
-5.37372e-06
-6.13983e-06
-4.0336e-06
-6.69926e-06
-2.63378e-06
-6.62169e-06
-1.34574e-06
-5.76557e-06
-3.88551e-07
-4.05396e-06
-1.54145e-06
-4.35826e-07
1.94801e-06
-1.46606e-06
4.92034e-06
-2.816e-06
6.83769e-06
-4.2608e-06
7.75514e-06
-5.64156e-06
7.83007e-06
-6.85882e-06
7.24487e-06
-7.8576e-06
6.16986e-06
-8.61141e-06
4.747e-06
-9.10829e-06
3.08652e-06
-9.34064e-06
1.27267e-06
-9.2991e-06
-6.24967e-07
-8.9707e-06
-2.53734e-06
-8.34174e-06
-4.38056e-06
-7.406e-06
-6.04152e-06
-6.17867e-06
-7.36716e-06
-4.71556e-06
-8.16237e-06
-3.13439e-06
-8.20287e-06
-1.63124e-06
-7.26872e-06
-4.80483e-07
-5.20472e-06
-2.02193e-06
-5.23816e-07
2.47183e-06
-1.72326e-06
6.11978e-06
-3.24261e-06
8.35703e-06
-4.81114e-06
9.32367e-06
-6.25722e-06
9.27615e-06
-7.49013e-06
8.47778e-06
-8.47393e-06
7.15366e-06
-9.20323e-06
5.4763e-06
-9.6842e-06
3.56749e-06
-9.92149e-06
1.50996e-06
-9.9104e-06
-6.36062e-07
-9.63392e-06
-2.81381e-06
-9.065e-06
-4.94948e-06
-8.17513e-06
-6.93139e-06
-6.95117e-06
-8.59112e-06
-5.42143e-06
-9.6921e-06
-3.68957e-06
-9.93472e-06
-1.96841e-06
-8.98988e-06
-5.95858e-07
-6.57728e-06
-2.61779e-06
-6.34172e-07
3.106e-06
-2.02012e-06
7.50574e-06
-3.6911e-06
1.0028e-05
-5.32712e-06
1.09597e-05
-6.75572e-06
1.07048e-05
-7.91113e-06
9.63319e-06
-8.79091e-06
8.03343e-06
-9.42153e-06
6.10692e-06
-9.83463e-06
3.98059e-06
-1.00519e-05
1.72726e-06
-1.00765e-05
-6.11492e-07
-9.88882e-06
-3.00148e-06
-9.44752e-06
-5.39079e-06
-8.69658e-06
-7.68233e-06
-7.58283e-06
-9.70487e-06
-6.08798e-06
-1.1187e-05
-4.27751e-06
-1.17452e-05
-2.36123e-06
-1.09062e-05
-7.42489e-07
-8.19601e-06
-3.36028e-06
-7.79522e-07
3.88552e-06
-2.36595e-06
9.09216e-06
-4.14036e-06
1.18024e-05
-5.73992e-06
1.25592e-05
-7.01664e-06
1.19815e-05
-7.95511e-06
1.05717e-05
-8.60485e-06
8.68317e-06
-9.03539e-06
6.53746e-06
-9.30983e-06
4.25503e-06
-9.47048e-06
1.8879e-06
-9.53112e-06
-5.50844e-07
-9.47265e-06
-3.05996e-06
-9.24133e-06
-5.62211e-06
-8.75207e-06
-8.1716e-06
-7.90213e-06
-1.05548e-05
-6.60458e-06
-1.24845e-05
-4.85137e-06
-1.34984e-05
-2.80984e-06
-1.29477e-05
-9.32987e-07
-1.00729e-05
-4.29327e-06
-9.82857e-07
4.86838e-06
-2.77095e-06
1.08803e-05
-4.54421e-06
1.35757e-05
-5.92937e-06
1.39444e-05
-6.85114e-06
1.29032e-05
-7.38051e-06
1.1101e-05
-7.63864e-06
8.9413e-06
-7.74548e-06
6.6443e-06
-7.79662e-06
4.30617e-06
-7.85452e-06
1.9458e-06
-7.94484e-06
-4.60529e-07
-8.05305e-06
-2.95174e-06
-8.11975e-06
-5.55541e-06
-8.03664e-06
-8.2547e-06
-7.65004e-06
-1.09414e-05
-6.78585e-06
-1.33487e-05
-5.3179e-06
-1.49664e-05
-3.30286e-06
-1.49627e-05
-1.1876e-06
-1.21881e-05
-5.48087e-06
-1.28139e-06
6.14977e-06
-3.23046e-06
1.28293e-05
-4.79224e-06
1.51375e-05
-5.6748e-06
1.4827e-05
-5.95693e-06
1.31854e-05
-5.8383e-06
1.09824e-05
-5.52381e-06
8.62681e-06
-5.17965e-06
6.30014e-06
-4.92435e-06
4.05087e-06
-4.83244e-06
1.85389e-06
-4.93879e-06
-3.54173e-07
-5.23814e-06
-2.6524e-06
-5.67772e-06
-5.11582e-06
-6.14375e-06
-7.78868e-06
-6.44722e-06
-1.06379e-05
-6.32525e-06
-1.34707e-05
-5.4918e-06
-1.57998e-05
-3.7919e-06
-1.66626e-05
-1.5337e-06
-1.44463e-05
-7.01456e-06
-1.71565e-06
7.86542e-06
-3.66221e-06
1.47759e-05
-4.61116e-06
1.60864e-05
-4.55605e-06
1.47719e-05
-3.84233e-06
1.24716e-05
-2.82639e-06
9.96647e-06
-1.78289e-06
7.5833e-06
-8.96812e-07
5.41407e-06
-2.83559e-07
3.43762e-06
-1.13092e-08
1.58164e-06
-1.158e-07
-2.49682e-07
-6.04405e-07
-2.16379e-06
-1.44796e-06
-4.27227e-06
-2.55864e-06
-6.67799e-06
-3.75425e-06
-9.44233e-06
-4.71951e-06
-1.25054e-05
-5.00056e-06
-1.55188e-05
-4.11593e-06
-1.75473e-05
-1.98402e-06
-1.65782e-05
-8.99858e-06
-2.25849e-06
1.01239e-05
-3.71478e-06
1.62322e-05
-3.34075e-06
1.57124e-05
-1.77371e-06
1.32048e-05
2.84164e-07
1.04138e-05
2.35868e-06
7.89196e-06
4.17453e-06
5.76745e-06
5.58908e-06
3.99952e-06
6.53376e-06
2.49293e-06
6.97396e-06
1.14144e-06
6.88646e-06
-1.6218e-07
6.25133e-06
-1.52867e-06
5.05774e-06
-3.07868e-06
3.32769e-06
-4.94795e-06
1.16609e-06
-7.28072e-06
-1.15655e-06
-1.01828e-05
-3.10174e-06
-1.35736e-05
-3.81145e-06
-1.68376e-05
-2.44623e-06
-1.79435e-05
-1.14448e-05
-2.56719e-06
1.26911e-05
-2.2655e-06
1.59305e-05
5.23986e-07
1.29229e-05
4.134e-06
9.59479e-06
7.63571e-06
6.91207e-06
1.06376e-05
4.89004e-06
1.30114e-05
3.39371e-06
1.47444e-05
2.2665e-06
1.58618e-05
1.37555e-06
1.63863e-05
6.16884e-07
1.63198e-05
-9.56202e-08
1.56349e-05
-8.43769e-07
1.42757e-05
-1.71949e-06
1.21699e-05
-2.84218e-06
9.26772e-06
-4.37851e-06
5.63514e-06
-6.55019e-06
1.64532e-06
-9.58375e-06
-1.68651e-06
-1.35057e-05
-2.46666e-06
-1.71633e-05
-1.39115e-05
-8.46239e-07
1.35373e-05
4.03168e-06
1.10525e-05
1.01918e-05
6.76278e-06
1.55901e-05
4.19646e-06
1.98359e-05
2.66631e-06
2.30114e-05
1.71451e-06
2.52983e-05
1.10687e-06
2.68644e-05
7.00401e-07
2.78329e-05
4.06992e-07
2.82777e-05
1.72137e-07
2.82237e-05
-4.1661e-08
2.76465e-05
-2.66589e-07
2.64666e-05
-5.39554e-07
2.45397e-05
-9.15307e-07
2.16496e-05
-1.4884e-06
1.75295e-05
-2.43012e-06
1.19941e-05
-4.04837e-06
5.37799e-06
-6.88957e-06
-2.15751e-07
-1.15696e-05
-1.41272e-05
1.35373e-05
2.45899e-05
3.13527e-05
3.55491e-05
3.82155e-05
3.993e-05
4.10368e-05
4.17372e-05
4.21442e-05
4.23164e-05
4.22747e-05
4.20081e-05
4.14686e-05
4.05532e-05
3.90648e-05
3.66347e-05
3.25864e-05
2.56968e-05
1.41272e-05
)
;

boundaryField
{
    movingWall
    {
        type            calculated;
        value           uniform 0;
    }
    fixedWalls
    {
        type            calculated;
        value           uniform 0;
    }
    frontAndBack
    {
        type            empty;
        value           nonuniform 0();
    }
}


// ************************************************************************* //
