/*--------------------------------*- C++ -*----------------------------------*\
  =========                 |
  \\      /  F ield         | OpenFOAM: The Open Source CFD Toolbox
   \\    /   O peration     | Website:  https://openfoam.org
    \\  /    A nd           | Version:  6
     \\/     M anipulation  |
\*---------------------------------------------------------------------------*/
FoamFile
{
    version     2.0;
    format      ascii;
    class       volVectorField;
    location    "0.04";
    object      U;
}
// * * * * * * * * * * * * * * * * * * * * * * * * * * * * * * * * * * * * * //

dimensions      [0 1 -1 0 0 0 0];

internalField   nonuniform List<vector> 
400
(
(0.00019287 -0.00019014 0)
(4.90844e-05 0.000130675 0)
(-0.0011178 0.000510391 0)
(-0.00309847 0.000769398 0)
(-0.00554538 0.00089179 0)
(-0.00812559 0.00089394 0)
(-0.010551 0.00079891 0)
(-0.0125894 0.000630039 0)
(-0.0140656 0.000408445 0)
(-0.0148596 0.000153248 0)
(-0.0149037 -0.000117011 0)
(-0.0141847 -0.000382723 0)
(-0.0127478 -0.000621864 0)
(-0.010703 -0.00080932 0)
(-0.00823062 -0.000917306 0)
(-0.00558342 -0.000917523 0)
(-0.00307762 -0.000785991 0)
(-0.0010703 -0.000510986 0)
(8.5852e-05 -0.00011863 0)
(0.000204605 0.000199919 0)
(-9.97165e-05 -7.43485e-05 0)
(-0.00146351 0.00149599 0)
(-0.00496499 0.0031371 0)
(-0.0100619 0.00427882 0)
(-0.0160591 0.0048165 0)
(-0.0222775 0.00478285 0)
(-0.0280879 0.00426174 0)
(-0.0329587 0.0033552 0)
(-0.0364791 0.00216727 0)
(-0.0383638 0.000800037 0)
(-0.0384549 -0.000643732 0)
(-0.0367265 -0.00205584 0)
(-0.0332928 -0.00331878 0)
(-0.028418 -0.00430519 0)
(-0.0225219 -0.00488305 0)
(-0.0161735 -0.00492956 0)
(-0.010055 -0.00435678 0)
(-0.00489289 -0.00315037 0)
(-0.00139754 -0.00145451 0)
(-7.65899e-05 0.000114487 0)
(-0.000474343 0.00103553 0)
(-0.00320774 0.00500316 0)
(-0.00903194 0.00872376 0)
(-0.016929 0.0112841 0)
(-0.0259003 0.0124481 0)
(-0.0350388 0.0122551 0)
(-0.043496 0.0108766 0)
(-0.0505472 0.00854337 0)
(-0.055628 0.00550581 0)
(-0.0583454 0.0020191 0)
(-0.0584812 -0.00165563 0)
(-0.056 -0.00524393 0)
(-0.0510586 -0.00845208 0)
(-0.0440189 -0.0109689 0)
(-0.035453 -0.0124818 0)
(-0.0261328 -0.0127126 0)
(-0.0169782 -0.0114785 0)
(-0.00896594 -0.00877727 0)
(-0.00312665 -0.00492816 0)
(-0.000442726 -0.000947723 0)
(-0.000801566 0.00307779 0)
(-0.00484688 0.0104988 0)
(-0.0129586 0.016882 0)
(-0.0235547 0.0211312 0)
(-0.0352957 0.0229406 0)
(-0.0470664 0.0223923 0)
(-0.0578487 0.0197782 0)
(-0.0667823 0.0154929 0)
(-0.073202 0.00997048 0)
(-0.0766448 0.00365788 0)
(-0.0768512 -0.00298534 0)
(-0.0737728 -0.00947671 0)
(-0.0675842 -0.0153019 0)
(-0.0587005 -0.0199188 0)
(-0.0477896 -0.0227858 0)
(-0.0357679 -0.023423 0)
(-0.0237473 -0.0215118 0)
(-0.0129457 -0.0170247 0)
(-0.00476457 -0.010404 0)
(-0.000761988 -0.00293091 0)
(-0.00109546 0.00595704 0)
(-0.00641749 0.0178894 0)
(-0.0168293 0.0274959 0)
(-0.0301402 0.0336339 0)
(-0.0446271 0.0360304 0)
(-0.0589552 0.0348828 0)
(-0.071954 0.030656 0)
(-0.0826593 0.0239474 0)
(-0.0903391 0.0154033 0)
(-0.0944863 0.00568482 0)
(-0.0948115 -0.00453136 0)
(-0.0912466 -0.0145355 0)
(-0.0839605 -0.0235689 0)
(-0.0733851 -0.030826 0)
(-0.0602433 -0.0354928 0)
(-0.0455638 -0.0368317 0)
(-0.0306422 -0.0343204 0)
(-0.0169637 -0.0278268 0)
(-0.00636696 -0.0178231 0)
(-0.0010519 -0.00574983 0)
(-0.00138765 0.00964928 0)
(-0.00802388 0.027208 0)
(-0.0208344 0.0406482 0)
(-0.0369708 0.0488783 0)
(-0.054282 0.0517726 0)
(-0.0711968 0.0497423 0)
(-0.086401 0.0434991 0)
(-0.0988512 0.0338925 0)
(-0.107777 0.0218099 0)
(-0.112651 0.00813981 0)
(-0.113162 -0.00621948 0)
(-0.109214 -0.0203273 0)
(-0.100947 -0.033169 0)
(-0.0887714 -0.0436495 0)
(-0.0734265 -0.0506325 0)
(-0.0560251 -0.0530478 0)
(-0.0380449 -0.0500702 0)
(-0.021275 -0.0413499 0)
(-0.0080671 -0.0272805 0)
(-0.00135019 -0.00940222 0)
(-0.00170785 0.0141981 0)
(-0.00977365 0.0385767 0)
(-0.0251711 0.0564968 0)
(-0.0443115 0.0670078 0)
(-0.0645644 0.0702647 0)
(-0.0841117 0.0670174 0)
(-0.101512 0.0583193 0)
(-0.115675 0.0453322 0)
(-0.12583 0.0292123 0)
(-0.131454 0.0110788 0)
(-0.132231 -0.00795922 0)
(-0.128029 -0.0267438 0)
(-0.118928 -0.0440091 0)
(-0.105274 -0.0583507 0)
(-0.0877717 -0.0682572 0)
(-0.0675747 -0.0722305 0)
(-0.0463274 -0.0690089 0)
(-0.0261529 -0.0578712 0)
(-0.0100089 -0.0389955 0)
(-0.00169469 -0.0139713 0)
(-0.00208272 0.0197067 0)
(-0.0117641 0.0522029 0)
(-0.0300073 0.0752583 0)
(-0.0523522 0.0881812 0)
(-0.0756295 0.0915806 0)
(-0.0977774 0.0867053 0)
(-0.117266 0.0750698 0)
(-0.133014 0.0582174 0)
(-0.144303 0.0375978 0)
(-0.150662 0.0145506 0)
(-0.151785 -0.00963529 0)
(-0.147505 -0.033622 0)
(-0.137809 -0.0559181 0)
(-0.122921 -0.0748071 0)
(-0.103433 -0.0883512 0)
(-0.0804668 -0.0945119 0)
(-0.0557827 -0.0914173 0)
(-0.031847 -0.0777619 0)
(-0.0123324 -0.0533121 0)
(-0.0021224 -0.0196212 0)
(-0.00253839 0.0263307 0)
(-0.0140828 0.0683644 0)
(-0.0354676 0.0971759 0)
(-0.0611724 0.112516 0)
(-0.0874244 0.115692 0)
(-0.11195 0.108664 0)
(-0.133207 0.0935565 0)
(-0.150211 0.07237 0)
(-0.162382 0.0468636 0)
(-0.169361 0.0185679 0)
(-0.170895 -0.0111064 0)
(-0.166779 -0.0407092 0)
(-0.156876 -0.0685822 0)
(-0.141214 -0.0927219 0)
(-0.120165 -0.110728 0)
(-0.094692 -0.1199 0)
(-0.0665669 -0.117535 0)
(-0.0385599 -0.101446 0)
(-0.0151728 -0.070685 0)
(-0.00267259 -0.0265941 0)
(-0.00310711 0.0342765 0)
(-0.0168209 0.0873875 0)
(-0.0416357 0.12246 0)
(-0.070715 0.139993 0)
(-0.0996272 0.142349 0)
(-0.12597 0.132487 0)
(-0.148321 0.113319 0)
(-0.165933 0.0873817 0)
(-0.178479 0.0567421 0)
(-0.185807 0.0230645 0)
(-0.187766 -0.0122104 0)
(-0.184131 -0.0476285 0)
(-0.17461 -0.0814671 0)
(-0.158949 -0.111506 0)
(-0.137159 -0.134884 0)
(-0.109858 -0.148123 0)
(-0.0786319 -0.147428 0)
(-0.0464295 -0.129319 0)
(-0.0186699 -0.0916514 0)
(-0.00339381 -0.0352114 0)
(-0.00384007 0.043813 0)
(-0.0200997 0.109626 0)
(-0.0485656 0.151205 0)
(-0.0807539 0.170319 0)
(-0.111564 0.170917 0)
(-0.138639 0.157339 0)
(-0.160894 0.133487 0)
(-0.178012 0.1025 0)
(-0.190078 0.0667175 0)
(-0.197252 0.0278439 0)
(-0.199562 -0.0127817 0)
(-0.196792 -0.0538536 0)
(-0.188476 -0.0937433 0)
(-0.173998 -0.13015 0)
(-0.152843 -0.15982 0)
(-0.125026 -0.178429 0)
(-0.0916296 -0.180803 0)
(-0.0555065 -0.161618 0)
(-0.0229864 -0.11679 0)
(-0.00435709 -0.0458874 0)
(-0.00483178 0.0553116 0)
(-0.0241162 0.135444 0)
(-0.0562906 0.183271 0)
(-0.0908296 0.202736 0)
(-0.122075 0.20017 0)
(-0.148045 0.181768 0)
(-0.168319 0.15263 0)
(-0.183268 0.116512 0)
(-0.193564 0.0759424 0)
(-0.199798 0.0325226 0)
(-0.20225 -0.0126809 0)
(-0.200762 -0.058706 0)
(-0.194709 -0.104233 0)
(-0.183058 -0.147102 0)
(-0.16461 -0.18384 0)
(-0.138468 -0.209314 0)
(-0.104753 -0.216724 0)
(-0.0657043 -0.198224 0)
(-0.0283354 -0.146664 0)
(-0.00567966 -0.0591658 0)
(-0.0062647 0.0693342 0)
(-0.0292091 0.165187 0)
(-0.0647976 0.218082 0)
(-0.100089 0.23574 0)
(-0.129256 0.22801 0)
(-0.151276 0.20349 0)
(-0.166845 0.16861 0)
(-0.177312 0.12766 0)
(-0.184095 0.0831839 0)
(-0.188301 0.0364866 0)
(-0.190518 -0.0118378 0)
(-0.190707 -0.0613878 0)
(-0.188139 -0.11141 0)
(-0.181388 -0.160189 0)
(-0.168478 -0.20436 0)
(-0.14731 -0.238213 0)
(-0.116448 -0.253233 0)
(-0.0766766 -0.238338 0)
(-0.0350113 -0.181705 0)
(-0.00756637 -0.075798 0)
(-0.00848333 0.0868004 0)
(-0.0359231 0.199091 0)
(-0.0738636 0.254266 0)
(-0.106886 0.266646 0)
(-0.129956 0.251133 0)
(-0.143939 0.219196 0)
(-0.151208 0.178518 0)
(-0.154328 0.133647 0)
(-0.155518 0.0868483 0)
(-0.156389 0.0388919 0)
(-0.157835 -0.0102971 0)
(-0.159985 -0.0610717 0)
(-0.162123 -0.113495 0)
(-0.162576 -0.166661 0)
(-0.158679 -0.217804 0)
(-0.146979 -0.261171 0)
(-0.123884 -0.286826 0)
(-0.087506 -0.27994 0)
(-0.0433795 -0.221977 0)
(-0.0103705 -0.0968738 0)
(-0.0120753 0.109236 0)
(-0.044942 0.236966 0)
(-0.0824729 0.288966 0)
(-0.107823 0.290989 0)
(-0.118775 0.264703 0)
(-0.119369 0.224507 0)
(-0.114133 0.178809 0)
(-0.106864 0.131842 0)
(-0.100405 0.0851653 0)
(-0.0966678 0.0387599 0)
(-0.0967326 -0.00824979 0)
(-0.100912 -0.0570668 0)
(-0.108674 -0.108729 0)
(-0.11842 -0.163474 0)
(-0.127178 -0.219751 0)
(-0.130373 -0.272679 0)
(-0.121943 -0.311853 0)
(-0.0959183 -0.31893 0)
(-0.0536423 -0.266602 0)
(-0.0146266 -0.123969 0)
(-0.0177715 0.139157 0)
(-0.0563676 0.277321 0)
(-0.0870698 0.316574 0)
(-0.0956343 0.301726 0)
(-0.086255 0.262216 0)
(-0.0674074 0.214301 0)
(-0.0457275 0.165846 0)
(-0.0257312 0.119837 0)
(-0.0103088 0.076626 0)
(-0.00120839 0.0352266 0)
(0.000577322 -0.00601776 0)
(-0.00538866 -0.0490608 0)
(-0.0189544 -0.0958598 0)
(-0.0390815 -0.147945 0)
(-0.063262 -0.205556 0)
(-0.0866947 -0.265904 0)
(-0.10139 -0.319991 0)
(-0.0963894 -0.347803 0)
(-0.0647887 -0.312575 0)
(-0.0207995 -0.159353 0)
(-0.0254251 0.180942 0)
(-0.0668962 0.315108 0)
(-0.0770489 0.326176 0)
(-0.0549117 0.288134 0)
(-0.0159594 0.235723 0)
(0.0270985 0.183627 0)
(0.0669469 0.13697 0)
(0.0997267 0.0963935 0)
(0.123552 0.0606863 0)
(0.137533 0.0279546 0)
(0.141162 -0.00396125 0)
(0.134018 -0.037387 0)
(0.115732 -0.0748102 0)
(0.0862579 -0.118801 0)
(0.0465659 -0.171574 0)
(-3.40415e-05 -0.233561 0)
(-0.0458031 -0.299913 0)
(-0.0760849 -0.353579 0)
(-0.0713946 -0.352296 0)
(-0.0278971 -0.206532 0)
(-0.029069 0.238647 0)
(-0.0610071 0.334963 0)
(-0.0245886 0.297943 0)
(0.0453279 0.236077 0)
(0.119311 0.178055 0)
(0.185386 0.130285 0)
(0.23943 0.0926769 0)
(0.280476 0.0630162 0)
(0.308876 0.0387811 0)
(0.32524 0.0176849 0)
(0.329874 -0.00234572 0)
(0.322544 -0.0233628 0)
(0.302396 -0.0476477 0)
(0.268041 -0.0779864 0)
(0.218014 -0.117846 0)
(0.151966 -0.170953 0)
(0.0729825 -0.239072 0)
(-0.00702597 -0.315731 0)
(-0.0552811 -0.366658 0)
(-0.0279107 -0.266247 0)
(0.00965222 0.28107 0)
(0.0210227 0.294577 0)
(0.137636 0.209998 0)
(0.261369 0.141898 0)
(0.359178 0.0952609 0)
(0.432684 0.0637705 0)
(0.486586 0.0423933 0)
(0.524556 0.0274108 0)
(0.549504 0.0162406 0)
(0.563426 0.00712382 0)
(0.567324 -0.00124533 0)
(0.561219 -0.010035 0)
(0.544093 -0.0205748 0)
(0.513728 -0.0347348 0)
(0.466556 -0.0554819 0)
(0.397658 -0.0875795 0)
(0.300467 -0.138062 0)
(0.170719 -0.215004 0)
(0.0419069 -0.310604 0)
(0.0200065 -0.298732 0)
(0.301084 0.145588 0)
(0.397962 0.127101 0)
(0.557449 0.0758006 0)
(0.673761 0.0434193 0)
(0.742245 0.0252384 0)
(0.784394 0.0149082 0)
(0.811635 0.00891535 0)
(0.829183 0.0052836 0)
(0.839949 0.00289701 0)
(0.845585 0.00112608 0)
(0.846862 -0.000418198 0)
(0.84388 -0.00204232 0)
(0.836073 -0.00409645 0)
(0.821999 -0.00713835 0)
(0.798856 -0.0122252 0)
(0.761362 -0.0214562 0)
(0.697697 -0.0389504 0)
(0.583348 -0.0722552 0)
(0.417225 -0.127253 0)
(0.310309 -0.148839 0)
)
;

boundaryField
{
    movingWall
    {
        type            fixedValue;
        value           uniform (1 0 0);
    }
    fixedWalls
    {
        type            noSlip;
    }
    frontAndBack
    {
        type            empty;
    }
}


// ************************************************************************* //
