/*--------------------------------*- C++ -*----------------------------------*\
  =========                 |
  \\      /  F ield         | OpenFOAM: The Open Source CFD Toolbox
   \\    /   O peration     | Website:  https://openfoam.org
    \\  /    A nd           | Version:  6
     \\/     M anipulation  |
\*---------------------------------------------------------------------------*/
FoamFile
{
    version     2.0;
    format      ascii;
    class       surfaceScalarField;
    location    "0.085";
    object      phi;
}
// * * * * * * * * * * * * * * * * * * * * * * * * * * * * * * * * * * * * * //

dimensions      [0 3 -1 0 0 0 0];

internalField   nonuniform List<scalar> 
760
(
1.9534e-09
-1.95371e-09
-3.66712e-08
3.86246e-08
-1.09641e-07
7.29693e-08
-2.01487e-07
9.18462e-08
-2.98922e-07
9.74357e-08
-3.91919e-07
9.29963e-08
-4.73235e-07
8.13164e-08
-5.37657e-07
6.44218e-08
-5.81293e-07
4.36362e-08
-6.01167e-07
1.98742e-08
-5.95159e-07
-6.00822e-09
-5.62267e-07
-3.28918e-08
-5.0314e-07
-5.9127e-08
-4.20789e-07
-8.23513e-08
-3.21342e-07
-9.94466e-08
-2.14601e-07
-1.06741e-07
-1.14028e-07
-1.00573e-07
-3.58828e-08
-7.81449e-08
3.44454e-09
-3.93273e-08
3.44441e-09
-3.80866e-08
3.6133e-08
-1.5678e-07
1.57318e-07
-3.3867e-07
2.5486e-07
-5.56939e-07
3.10116e-07
-7.85599e-07
3.26095e-07
-1.00312e-06
3.10519e-07
-1.1929e-06
2.71099e-07
-1.3425e-06
2.14019e-07
-1.44263e-06
1.4376e-07
-1.48649e-06
6.37359e-08
-1.46969e-06
-2.2804e-08
-1.39073e-06
-1.11852e-07
-1.25199e-06
-1.97871e-07
-1.06104e-06
-2.73298e-07
-8.31952e-07
-3.28534e-07
-5.85962e-07
-3.52731e-07
-3.50845e-07
-3.3569e-07
-1.58072e-07
-2.70918e-07
-3.64442e-08
-1.60956e-07
-3.29999e-08
-7.61105e-08
1.12244e-07
-2.68042e-07
3.4925e-07
-5.40593e-07
5.27411e-07
-8.57042e-07
6.26565e-07
-1.18347e-06
6.52527e-07
-1.4916e-06
6.18646e-07
-1.75923e-06
5.38732e-07
-1.96949e-06
4.24271e-07
-2.10968e-06
2.83955e-07
-2.17059e-06
1.2465e-07
-2.14635e-06
-4.70515e-08
-2.03502e-06
-2.23178e-07
-1.83994e-06
-3.92954e-07
-1.57134e-06
-5.41899e-07
-1.248e-06
-6.51869e-07
-8.98089e-07
-7.02644e-07
-5.58244e-07
-6.75535e-07
-2.70093e-07
-5.59069e-07
-7.36702e-08
-3.57378e-07
-1.0667e-07
-1.05999e-07
2.18242e-07
-3.61454e-07
6.04705e-07
-7.13093e-07
8.7905e-07
-1.11319e-06
1.02666e-06
-1.52075e-06
1.06009e-06
-1.9026e-06
1.0005e-06
-2.23304e-06
8.6917e-07
-2.49252e-06
6.83748e-07
-2.66626e-06
4.57701e-07
-2.74333e-06
2.01716e-07
-2.71642e-06
-7.39568e-08
-2.58264e-06
-3.56966e-07
-2.345e-06
-6.3059e-07
-2.01465e-06
-8.72245e-07
-1.61306e-06
-1.05346e-06
-1.17341e-06
-1.14229e-06
-7.40088e-07
-1.10886e-06
-3.65244e-07
-9.33913e-07
-1.02418e-07
-6.20204e-07
-2.09088e-07
-1.31099e-07
3.49341e-07
-4.43947e-07
9.17552e-07
-8.68811e-07
1.30391e-06
-1.34643e-06
1.50428e-06
-1.82863e-06
1.54229e-06
-2.27799e-06
1.44986e-06
-2.66628e-06
1.25746e-06
-2.9723e-06
9.89776e-07
-3.17992e-06
6.65319e-07
-3.27669e-06
2.98486e-07
-3.25356e-06
-9.70909e-08
-3.10565e-06
-5.04874e-07
-2.83424e-06
-9.02003e-07
-2.44964e-06
-1.25684e-06
-1.97451e-06
-1.52859e-06
-1.44646e-06
-1.67034e-06
-9.18433e-07
-1.63688e-06
-4.55494e-07
-1.39685e-06
-1.27592e-07
-9.48106e-07
-3.3668e-07
-1.55197e-07
5.04538e-07
-5.25019e-07
1.28737e-06
-1.0237e-06
1.80259e-06
-1.57979e-06
2.06037e-06
-2.13756e-06
2.10006e-06
-2.65554e-06
1.96784e-06
-3.10358e-06
1.7055e-06
-3.45953e-06
1.34573e-06
-3.70634e-06
9.12123e-07
-3.83009e-06
4.2224e-07
-3.81939e-06
-1.07792e-07
-3.66615e-06
-6.58118e-07
-3.36802e-06
-1.20013e-06
-2.93242e-06
-1.69245e-06
-2.38147e-06
-2.07954e-06
-1.75672e-06
-2.2951e-06
-1.12127e-06
-2.27233e-06
-5.56965e-07
-1.96116e-06
-1.54971e-07
-1.3501e-06
-4.91651e-07
-1.81663e-07
6.86201e-07
-6.13905e-07
1.71962e-06
-1.19321e-06
2.38189e-06
-1.83458e-06
2.70175e-06
-2.47416e-06
2.73964e-06
-3.0666e-06
2.56027e-06
-3.58049e-06
2.21938e-06
-3.99349e-06
1.75873e-06
-4.28822e-06
1.20685e-06
-4.44942e-06
5.83437e-07
-4.46273e-06
-9.44798e-08
-4.31539e-06
-8.0546e-07
-3.9991e-06
-1.51641e-06
-3.51541e-06
-2.17614e-06
-2.88315e-06
-2.71181e-06
-2.14643e-06
-3.03181e-06
-1.38006e-06
-3.0387e-06
-6.87939e-07
-2.65328e-06
-1.90651e-07
-1.84739e-06
-6.82303e-07
-2.13504e-07
8.99705e-07
-7.19026e-07
2.22514e-06
-1.39112e-06
3.05398e-06
-2.12884e-06
3.43947e-06
-2.85944e-06
3.47024e-06
-3.53416e-06
3.23499e-06
-4.12139e-06
2.80661e-06
-4.59982e-06
2.23717e-06
-4.95278e-06
1.55981e-06
-5.16415e-06
7.94809e-07
-5.21634e-06
-4.22898e-08
-5.09043e-06
-9.31368e-07
-4.76934e-06
-1.83751e-06
-4.2446e-06
-2.70088e-06
-3.52707e-06
-3.42934e-06
-2.65996e-06
-3.89892e-06
-1.73002e-06
-3.96864e-06
-8.69682e-07
-3.51362e-06
-2.41723e-07
-2.47535e-06
-9.24026e-07
-2.5362e-07
1.15333e-06
-8.48226e-07
2.81974e-06
-1.6294e-06
3.83515e-06
-2.4766e-06
4.28668e-06
-3.30749e-06
4.30113e-06
-4.0709e-06
3.9984e-06
-4.73681e-06
3.47252e-06
-5.28693e-06
2.78728e-06
-5.70705e-06
1.97993e-06
-5.98157e-06
1.06932e-06
-6.09002e-06
6.61693e-08
-6.00637e-06
-1.01503e-06
-5.70169e-06
-2.14218e-06
-5.15221e-06
-3.25036e-06
-4.35357e-06
-4.22797e-06
-3.34095e-06
-4.91155e-06
-2.20996e-06
-5.09962e-06
-1.12768e-06
-4.5959e-06
-3.17229e-07
-3.2858e-06
-1.24125e-06
-3.05279e-07
1.4586e-06
-1.00945e-06
3.52391e-06
-1.91838e-06
4.74409e-06
-2.88713e-06
5.25543e-06
-3.82344e-06
5.23745e-06
-4.67571e-06
4.85067e-06
-5.41836e-06
4.21517e-06
-6.03911e-06
3.40803e-06
-6.52911e-06
2.46993e-06
-6.87568e-06
1.41589e-06
-7.05725e-06
2.47738e-07
-7.04084e-06
-1.03143e-06
-6.78351e-06
-2.39952e-06
-6.2403e-06
-3.79357e-06
-5.38182e-06
-5.08646e-06
-4.22286e-06
-6.0705e-06
-2.85825e-06
-6.46423e-06
-1.49171e-06
-5.96243e-06
-4.29156e-07
-4.34835e-06
-1.67041e-06
-3.72821e-07
1.83143e-06
-1.21156e-06
4.36265e-06
-2.26658e-06
5.79911e-06
-3.36284e-06
6.35169e-06
-4.39906e-06
6.27367e-06
-5.32689e-06
5.7785e-06
-6.12951e-06
5.01779e-06
-6.80486e-06
4.08338e-06
-7.35346e-06
3.01854e-06
-7.76948e-06
1.83191e-06
-8.03378e-06
5.1204e-07
-8.10904e-06
-9.56172e-07
-7.9384e-06
-2.57016e-06
-7.45135e-06
-4.28062e-06
-6.58235e-06
-5.95546e-06
-5.30763e-06
-7.34522e-06
-3.70071e-06
-8.07115e-06
-1.99255e-06
-7.6706e-06
-5.93138e-07
-5.74776e-06
-2.26355e-06
-4.62787e-07
2.29421e-06
-1.46522e-06
5.36508e-06
-2.67923e-06
7.01312e-06
-3.8943e-06
7.56676e-06
-5.00414e-06
7.38351e-06
-5.97018e-06
6.74454e-06
-6.79063e-06
5.83824e-06
-7.47914e-06
4.77189e-06
-8.05067e-06
3.59006e-06
-8.51136e-06
2.2926e-06
-8.85022e-06
8.50899e-07
-9.03144e-06
-7.74949e-07
-8.98891e-06
-2.61269e-06
-8.6269e-06
-4.64263e-06
-7.83509e-06
-6.74727e-06
-6.52901e-06
-8.6513e-06
-4.7262e-06
-9.87396e-06
-2.65271e-06
-9.74409e-06
-8.28574e-07
-7.5719e-06
-3.09212e-06
-5.86006e-07
2.88022e-06
-1.78371e-06
6.56278e-06
-3.15417e-06
8.38358e-06
-4.45011e-06
8.8627e-06
-5.57083e-06
8.50423e-06
-6.49902e-06
7.67273e-06
-7.25682e-06
6.59605e-06
-7.88011e-06
5.39518e-06
-8.40353e-06
4.11348e-06
-8.85077e-06
2.73984e-06
-9.22595e-06
1.22608e-06
-9.5041e-06
-4.96793e-07
-9.62075e-06
-2.49605e-06
-9.46416e-06
-4.79922e-06
-8.8795e-06
-7.33192e-06
-7.70241e-06
-9.8284e-06
-5.84703e-06
-1.17293e-05
-3.46749e-06
-1.21236e-05
-1.15739e-06
-9.882e-06
-4.24951e-06
-7.61679e-07
3.6419e-06
-2.18315e-06
7.98425e-06
-3.67197e-06
9.8724e-06
-4.95636e-06
1.01471e-05
-5.96574e-06
9.51361e-06
-6.72327e-06
8.43026e-06
-7.287e-06
7.15978e-06
-7.72151e-06
5.82969e-06
-8.08483e-06
4.47681e-06
-8.42171e-06
3.07672e-06
-8.75738e-06
1.56175e-06
-9.08842e-06
-1.65746e-07
-9.36875e-06
-2.21572e-06
-9.49163e-06
-4.67635e-06
-9.27518e-06
-7.54836e-06
-8.47204e-06
-1.06315e-05
-6.84526e-06
-1.33561e-05
-4.37093e-06
-1.4598e-05
-1.59854e-06
-1.26544e-05
-5.84805e-06
-1.02434e-06
4.66624e-06
-2.67784e-06
9.63775e-06
-4.16996e-06
1.13645e-05
-5.25401e-06
1.12311e-05
-5.93952e-06
1.01991e-05
-6.31965e-06
8.81039e-06
-6.50169e-06
7.34181e-06
-6.58232e-06
5.91032e-06
-6.64152e-06
4.536e-06
-6.74273e-06
3.17793e-06
-6.93285e-06
1.75187e-06
-7.23731e-06
1.38715e-07
-7.64652e-06
-1.80652e-06
-8.09004e-06
-4.23282e-06
-8.39945e-06
-7.23896e-06
-8.27534e-06
-1.07557e-05
-7.31019e-06
-1.43213e-05
-5.17688e-06
-1.67313e-05
-2.14855e-06
-1.56827e-05
-7.9966e-06
-1.42851e-06
6.09476e-06
-3.24942e-06
1.14587e-05
-4.46896e-06
1.25841e-05
-5.00383e-06
1.1766e-05
-5.03203e-06
1.02273e-05
-4.75157e-06
8.52994e-06
-4.32502e-06
6.91526e-06
-3.87379e-06
5.45909e-06
-3.48723e-06
4.14945e-06
-3.23474e-06
2.92544e-06
-3.17513e-06
1.69226e-06
-3.3601e-06
3.2368e-07
-3.82711e-06
-1.33951e-06
-4.57407e-06
-3.48586e-06
-5.5058e-06
-6.30722e-06
-6.35013e-06
-9.91132e-06
-6.58024e-06
-1.40911e-05
-5.48306e-06
-1.78285e-05
-2.72489e-06
-1.84409e-05
-1.07215e-05
-2.02102e-06
8.11577e-06
-3.70666e-06
1.31443e-05
-4.05993e-06
1.29373e-05
-3.46927e-06
1.11754e-05
-2.39319e-06
9.15123e-06
-1.1426e-06
7.27935e-06
9.05208e-08
5.68214e-06
1.19267e-06
4.35694e-06
2.0953e-06
3.24682e-06
2.74873e-06
2.27201e-06
3.1033e-06
1.33769e-06
3.09692e-06
3.30065e-07
2.65111e-06
-8.93704e-07
1.68396e-06
-2.51871e-06
1.58821e-07
-4.78209e-06
-1.80062e-06
-7.95188e-06
-3.71139e-06
-1.21804e-05
-4.54307e-06
-1.69968e-05
-3.04186e-06
-1.99421e-05
-1.37633e-05
-2.6642e-06
1.078e-05
-3.16403e-06
1.36441e-05
-1.51701e-06
1.12903e-05
9.5284e-07
8.7055e-06
3.52431e-06
6.57976e-06
5.89002e-06
4.91364e-06
7.92863e-06
3.64353e-06
9.60448e-06
2.68108e-06
1.09164e-05
1.93493e-06
1.1866e-05
1.32233e-06
1.24376e-05
7.66126e-07
1.25819e-05
1.85785e-07
1.22033e-05
-5.15089e-07
1.11523e-05
-1.4677e-06
9.24027e-06
-2.87009e-06
6.32434e-06
-5.03595e-06
2.56075e-06
-8.41679e-06
-1.08663e-06
-1.33494e-05
-2.40962e-06
-1.86191e-05
-1.6173e-05
-1.80962e-06
1.25896e-05
1.82733e-06
1.00072e-05
6.89256e-06
6.22509e-06
1.14875e-05
4.11056e-06
1.52693e-05
2.79797e-06
1.82717e-05
1.91128e-06
2.06031e-05
1.31208e-06
2.23792e-05
9.04983e-07
2.36962e-05
6.17916e-07
2.46187e-05
3.99887e-07
2.51722e-05
2.12628e-07
2.53356e-05
2.23829e-08
2.5028e-05
-2.07485e-07
2.4087e-05
-5.26722e-07
2.22368e-05
-1.01993e-06
1.9065e-05
-1.86418e-06
1.41203e-05
-3.47206e-06
7.42396e-06
-6.65304e-06
9.37289e-07
-1.21324e-05
-1.52357e-05
1.25896e-05
2.25968e-05
2.88218e-05
3.29324e-05
3.57304e-05
3.76417e-05
3.89537e-05
3.98587e-05
4.04766e-05
4.08765e-05
4.10891e-05
4.11115e-05
4.0904e-05
4.03773e-05
3.93574e-05
3.74932e-05
3.40212e-05
2.73681e-05
1.52357e-05
)
;

boundaryField
{
    movingWall
    {
        type            calculated;
        value           uniform 0;
    }
    fixedWalls
    {
        type            calculated;
        value           uniform 0;
    }
    frontAndBack
    {
        type            empty;
        value           nonuniform 0();
    }
}


// ************************************************************************* //
