/*--------------------------------*- C++ -*----------------------------------*\
  =========                 |
  \\      /  F ield         | OpenFOAM: The Open Source CFD Toolbox
   \\    /   O peration     | Website:  https://openfoam.org
    \\  /    A nd           | Version:  6
     \\/     M anipulation  |
\*---------------------------------------------------------------------------*/
FoamFile
{
    version     2.0;
    format      ascii;
    class       volVectorField;
    location    "0.095";
    object      U;
}
// * * * * * * * * * * * * * * * * * * * * * * * * * * * * * * * * * * * * * //

dimensions      [0 1 -1 0 0 0 0];

internalField   nonuniform List<vector> 
400
(
(0.000237353 -0.000234476 0)
(0.000120601 0.000118861 0)
(-0.00115628 0.000555385 0)
(-0.00338351 0.000861751 0)
(-0.00617562 0.00101452 0)
(-0.00915223 0.00102911 0)
(-0.0119768 0.000929358 0)
(-0.0143711 0.000740136 0)
(-0.016119 0.000484742 0)
(-0.0170672 0.000185476 0)
(-0.0171264 -0.000134612 0)
(-0.0162765 -0.000450068 0)
(-0.0145734 -0.000732072 0)
(-0.0121568 -0.000948542 0)
(-0.00925399 -0.00106564 0)
(-0.00617714 -0.00105124 0)
(-0.00330671 -0.000881188 0)
(-0.00105748 -0.00054893 0)
(0.000184754 -9.50699e-05 0)
(0.000255145 0.000249626 0)
(-8.73471e-05 -0.000147625 0)
(-0.00158236 0.00161159 0)
(-0.00552667 0.00350909 0)
(-0.0113435 0.00486484 0)
(-0.0182564 0.00553883 0)
(-0.0254865 0.00555284 0)
(-0.0322951 0.00499036 0)
(-0.0380433 0.00395969 0)
(-0.0422239 0.00257697 0)
(-0.0444751 0.000962837 0)
(-0.044591 -0.000754627 0)
(-0.0425336 -0.00243604 0)
(-0.0384459 -0.0039294 0)
(-0.0326625 -0.00507364 0)
(-0.0257099 -0.00570921 0)
(-0.0182884 -0.00569793 0)
(-0.0112178 -0.00495495 0)
(-0.00534389 -0.00349345 0)
(-0.00145218 -0.00151975 0)
(-4.71912e-05 0.000216149 0)
(-0.000525029 0.00107703 0)
(-0.00361466 0.00556977 0)
(-0.0102608 0.00988605 0)
(-0.01934 0.0129322 0)
(-0.0297295 0.0143975 0)
(-0.0403877 0.0142909 0)
(-0.0503187 0.0127787 0)
(-0.0586506 0.0101054 0)
(-0.0646871 0.00655225 0)
(-0.0679308 0.00242261 0)
(-0.0680991 -0.00195756 0)
(-0.0651413 -0.00623588 0)
(-0.0592549 -0.0100345 0)
(-0.0508971 -0.0129623 0)
(-0.0407837 -0.014643 0)
(-0.0298623 -0.0147652 0)
(-0.0192365 -0.013156 0)
(-0.0100453 -0.00987785 0)
(-0.00344151 -0.00538034 0)
(-0.000467128 -0.000915416 0)
(-0.000914074 0.00339753 0)
(-0.00553753 0.0118507 0)
(-0.0148351 0.0192603 0)
(-0.0270335 0.0243136 0)
(-0.0406247 0.0266009 0)
(-0.0543337 0.0261564 0)
(-0.0669705 0.0232619 0)
(-0.0775035 0.0183351 0)
(-0.0851133 0.0118642 0)
(-0.0892147 0.00438182 0)
(-0.0894722 -0.00353803 0)
(-0.0858183 -0.0112769 0)
(-0.0784725 -0.0181751 0)
(-0.0679581 -0.0235537 0)
(-0.0551072 -0.0267631 0)
(-0.0410396 -0.0272661 0)
(-0.0270846 -0.0247582 0)
(-0.0146601 -0.0193117 0)
(-0.00534487 -0.0115643 0)
(-0.000840332 -0.00311508 0)
(-0.00125897 0.00670105 0)
(-0.00734261 0.0203219 0)
(-0.019237 0.0314516 0)
(-0.0344829 0.0387324 0)
(-0.0511512 0.0417758 0)
(-0.0677311 0.0407211 0)
(-0.082867 0.0360216 0)
(-0.0954106 0.0283079 0)
(-0.104463 0.0183058 0)
(-0.109385 0.00680257 0)
(-0.109801 -0.00535682 0)
(-0.105617 -0.0172635 0)
(-0.0970444 -0.0279467 0)
(-0.0846251 -0.036401 0)
(-0.0692536 -0.0416528 0)
(-0.0521775 -0.0428761 0)
(-0.0349344 -0.0395573 0)
(-0.0192449 -0.0316897 0)
(-0.00718206 -0.0199927 0)
(-0.00117634 -0.00628691 0)
(-0.0015859 0.0109273 0)
(-0.00910252 0.0309404 0)
(-0.0235792 0.046444 0)
(-0.041848 0.0561637 0)
(-0.0615309 0.0598636 0)
(-0.0808768 0.057895 0)
(-0.0983839 0.0509586 0)
(-0.112822 0.0399475 0)
(-0.12325 0.0258535 0)
(-0.129 0.00973138 0)
(-0.129668 -0.00729818 0)
(-0.125124 -0.0240312 0)
(-0.115539 -0.0391726 0)
(-0.101425 -0.0513599 0)
(-0.0836879 -0.0592397 0)
(-0.0636628 -0.0616118 0)
(-0.0430842 -0.0576421 0)
(-0.0240062 -0.0471171 0)
(-0.0090689 -0.0307153 0)
(-0.00151075 -0.0104048 0)
(-0.00191951 0.0160691 0)
(-0.0108968 0.0437153 0)
(-0.0279899 0.0642488 0)
(-0.0492797 0.0765921 0)
(-0.0719135 0.0808073 0)
(-0.0939034 0.0775867 0)
(-0.11363 0.0679737 0)
(-0.129824 0.053182 0)
(-0.141545 0.0344941 0)
(-0.148131 0.0132323 0)
(-0.149162 -0.00922109 0)
(-0.144463 -0.0313839 0)
(-0.134129 -0.0516422 0)
(-0.118588 -0.068257 0)
(-0.0986915 -0.0794361 0)
(-0.0758057 -0.0834991 0)
(-0.0518325 -0.0791431 0)
(-0.0291797 -0.0657761 0)
(-0.0111378 -0.0438839 0)
(-0.00188051 -0.0155225 0)
(-0.00228148 0.0221648 0)
(-0.012798 0.0587079 0)
(-0.0325791 0.0848948 0)
(-0.0568741 0.0999757 0)
(-0.0823267 0.104488 0)
(-0.106733 0.0996233 0)
(-0.128408 0.0868839 0)
(-0.146104 0.0678683 0)
(-0.158946 0.0441687 0)
(-0.166323 0.0173591 0)
(-0.167827 -0.0109542 0)
(-0.163232 -0.0390548 0)
(-0.152518 -0.0650422 0)
(-0.135964 -0.0868003 0)
(-0.114277 -0.102045 0)
(-0.0887581 -0.108494 0)
(-0.0614097 -0.104184 0)
(-0.0349853 -0.0879124 0)
(-0.0135203 -0.0597577 0)
(-0.00232217 -0.0217705 0)
(-0.00269366 0.0292936 0)
(-0.0148757 0.076026 0)
(-0.0374338 0.108409 0)
(-0.0646543 0.126203 0)
(-0.0926454 0.130659 0)
(-0.119035 0.123672 0)
(-0.142158 0.10734 0)
(-0.16089 0.083718 0)
(-0.174507 0.0547153 0)
(-0.182523 0.0221209 0)
(-0.184582 -0.012302 0)
(-0.18041 -0.0466811 0)
(-0.169842 -0.078899 0)
(-0.152921 -0.106496 0)
(-0.130087 -0.126664 0)
(-0.102431 -0.13639 0)
(-0.0719247 -0.132814 0)
(-0.0416049 -0.1138 0)
(-0.0163472 -0.0786932 0)
(-0.00287508 -0.0293543 0)
(-0.00318591 0.0375771 0)
(-0.0172154 0.0958145 0)
(-0.0426343 0.134775 0)
(-0.0725674 0.15502 0)
(-0.102563 0.158848 0)
(-0.130175 0.149128 0)
(-0.153899 0.12872 0)
(-0.172874 0.100202 0)
(-0.186657 0.0657934 0)
(-0.194982 0.0274333 0)
(-0.197608 -0.0130607 0)
(-0.194235 -0.0537824 0)
(-0.184522 -0.0925165 0)
(-0.168189 -0.126547 0)
(-0.145254 -0.152552 0)
(-0.116389 -0.166676 0)
(-0.0833055 -0.164885 0)
(-0.0491699 -0.143667 0)
(-0.0197594 -0.101122 0)
(-0.00358898 -0.038558 0)
(-0.00381048 0.0472007 0)
(-0.0199526 0.118256 0)
(-0.0482809 0.163882 0)
(-0.0804787 0.185924 0)
(-0.111543 0.188225 0)
(-0.139134 0.174979 0)
(-0.162119 0.15 0)
(-0.180104 0.116442 0)
(-0.193086 0.0767996 0)
(-0.201141 0.0330585 0)
(-0.204222 -0.0130506 0)
(-0.20205 -0.0597566 0)
(-0.194096 -0.104926 0)
(-0.179678 -0.145746 0)
(-0.158219 -0.178473 0)
(-0.129695 -0.198349 0)
(-0.0952088 -0.199872 0)
(-0.0577402 -0.177574 0)
(-0.0239282 -0.127518 0)
(-0.00453779 -0.0497618 0)
(-0.00466767 0.0584637 0)
(-0.0233239 0.14358 0)
(-0.0545185 0.195443 0)
(-0.08813 0.218016 0)
(-0.118717 0.217427 0)
(-0.144361 0.199644 0)
(-0.164627 0.169622 0)
(-0.17984 0.13111 0)
(-0.190621 0.0867861 0)
(-0.197515 0.0385408 0)
(-0.200762 -0.0121635 0)
(-0.200165 -0.0639024 0)
(-0.195034 -0.114864 0)
(-0.184246 -0.162391 0)
(-0.166473 -0.202526 0)
(-0.140676 -0.229674 0)
(-0.106859 -0.236618 0)
(-0.0672529 -0.215231 0)
(-0.0290829 -0.158346 0)
(-0.00584364 -0.0634833 0)
(-0.00595134 0.0718836 0)
(-0.0277381 0.172074 0)
(-0.06152 0.228838 0)
(-0.0949917 0.249758 0)
(-0.122632 0.244322 0)
(-0.143498 0.220787 0)
(-0.158294 0.185374 0)
(-0.168352 0.142349 0)
(-0.175084 0.0944089 0)
(-0.179602 0.0431564 0)
(-0.182507 -0.0104209 0)
(-0.183757 -0.0654783 0)
(-0.182583 -0.120808 0)
(-0.177458 -0.174249 0)
(-0.166233 -0.221999 0)
(-0.146566 -0.257901 0)
(-0.116754 -0.272969 0)
(-0.0773899 -0.255678 0)
(-0.0355374 -0.193955 0)
(-0.00771811 -0.0804599 0)
(-0.00802335 0.088379 0)
(-0.0338427 0.204028 0)
(-0.0693272 0.262802 0)
(-0.0998585 0.27859 0)
(-0.120728 0.265704 0)
(-0.13286 0.235141 0)
(-0.138636 0.194326 0)
(-0.140643 0.147786 0)
(-0.141154 0.097956 0)
(-0.14185 0.0459149 0)
(-0.143701 -0.00802592 0)
(-0.146887 -0.0638089 0)
(-0.150688 -0.121102 0)
(-0.153353 -0.178637 0)
(-0.152026 -0.233306 0)
(-0.142947 -0.278986 0)
(-0.122119 -0.305272 0)
(-0.087248 -0.296752 0)
(-0.0436699 -0.234333 0)
(-0.010521 -0.10178 0)
(-0.0114966 0.109537 0)
(-0.042461 0.239461 0)
(-0.0772631 0.294775 0)
(-0.0998594 0.30034 0)
(-0.108267 0.276965 0)
(-0.106525 0.23846 0)
(-0.0991792 0.192974 0)
(-0.0901038 0.144746 0)
(-0.0822731 0.0955458 0)
(-0.0777472 0.0456722 0)
(-0.0777507 -0.005379 0)
(-0.0827009 -0.0584438 0)
(-0.0921093 -0.114238 0)
(-0.104335 -0.172741 0)
(-0.116244 -0.232193 0)
(-0.122946 -0.287479 0)
(-0.117897 -0.327822 0)
(-0.0945304 -0.334233 0)
(-0.0536652 -0.278521 0)
(-0.0147864 -0.129025 0)
(-0.0171456 0.138017 0)
(-0.0538871 0.277278 0)
(-0.0821645 0.319642 0)
(-0.0882451 0.308409 0)
(-0.0763556 0.271917 0)
(-0.0549192 0.22581 0)
(-0.0306337 0.177754 0)
(-0.00818608 0.130815 0)
(0.00930669 0.0855943 0)
(0.0198661 0.0414244 0)
(0.0223023 -0.00301063 0)
(0.016037 -0.0493528 0)
(0.0011483 -0.0993132 0)
(-0.0213211 -0.154265 0)
(-0.0487603 -0.214379 0)
(-0.0761199 -0.276816 0)
(-0.0949592 -0.332398 0)
(-0.0936448 -0.360553 0)
(-0.0644236 -0.323403 0)
(-0.0209507 -0.164459 0)
(-0.0249191 0.178444 0)
(-0.0650869 0.313012 0)
(-0.0737856 0.327102 0)
(-0.049906 0.292537 0)
(-0.0087429 0.242904 0)
(0.0370035 0.192401 0)
(0.079836 0.146096 0)
(0.115596 0.104801 0)
(0.142071 0.0675683 0)
(0.158086 0.032794 0)
(0.162917 -0.00140005 0)
(0.156007 -0.0370967 0)
(0.136927 -0.0766073 0)
(0.105623 -0.122421 0)
(0.0631152 -0.176781 0)
(0.0128423 -0.240244 0)
(-0.0371689 -0.308033 0)
(-0.0717188 -0.362815 0)
(-0.0703289 -0.361248 0)
(-0.027919 -0.211532 0)
(-0.0290773 0.235375 0)
(-0.0608445 0.33202 0)
(-0.0243223 0.297789 0)
(0.0464958 0.238808 0)
(0.122395 0.182842 0)
(0.191204 0.136096 0)
(0.248437 0.0986014 0)
(0.292708 0.0683606 0)
(0.323994 0.043077 0)
(0.342619 0.0206732 0)
(0.348717 -0.000736373 0)
(0.341972 -0.0230458 0)
(0.321526 -0.048422 0)
(0.286034 -0.079604 0)
(0.234071 -0.120114 0)
(0.165317 -0.173873 0)
(0.082915 -0.242928 0)
(-0.0010434 -0.320897 0)
(-0.0530071 -0.372783 0)
(-0.0274457 -0.270641 0)
(0.00839931 0.278718 0)
(0.0187521 0.292564 0)
(0.134638 0.209847 0)
(0.258895 0.143438 0)
(0.358507 0.0977686 0)
(0.434614 0.066595 0)
(0.491441 0.0450925 0)
(0.532248 0.0297116 0)
(0.559639 0.0179891 0)
(0.575416 0.00825797 0)
(0.580496 -0.000709103 0)
(0.5749 -0.0100116 0)
(0.557682 -0.0209217 0)
(0.526732 -0.0352723 0)
(0.478582 -0.0560385 0)
(0.408346 -0.0880979 0)
(0.309396 -0.138774 0)
(0.177236 -0.216465 0)
(0.0455321 -0.3131 0)
(0.0215292 -0.301132 0)
(0.299863 0.145046 0)
(0.395418 0.126884 0)
(0.554162 0.0761977 0)
(0.671073 0.0441433 0)
(0.740889 0.0260359 0)
(0.784583 0.0156358 0)
(0.81334 0.00951222 0)
(0.832212 0.00572952 0)
(0.844009 0.00318898 0)
(0.850338 0.00127191 0)
(0.851971 -0.000400032 0)
(0.849041 -0.00212108 0)
(0.841052 -0.00422668 0)
(0.826659 -0.00725656 0)
(0.803171 -0.0122491 0)
(0.765405 -0.0213034 0)
(0.701625 -0.0386039 0)
(0.587049 -0.0718673 0)
(0.419778 -0.127195 0)
(0.311468 -0.149175 0)
)
;

boundaryField
{
    movingWall
    {
        type            fixedValue;
        value           uniform (1 0 0);
    }
    fixedWalls
    {
        type            noSlip;
    }
    frontAndBack
    {
        type            empty;
    }
}


// ************************************************************************* //
