/*--------------------------------*- C++ -*----------------------------------*\
  =========                 |
  \\      /  F ield         | OpenFOAM: The Open Source CFD Toolbox
   \\    /   O peration     | Website:  https://openfoam.org
    \\  /    A nd           | Version:  6
     \\/     M anipulation  |
\*---------------------------------------------------------------------------*/
FoamFile
{
    version     2.0;
    format      ascii;
    class       volScalarField;
    location    "0.085";
    object      p;
}
// * * * * * * * * * * * * * * * * * * * * * * * * * * * * * * * * * * * * * //

dimensions      [0 2 -2 0 0 0 0];

internalField   nonuniform List<scalar> 
400
(
-3.27091e-06
-0.00565478
-0.0126328
-0.0179245
-0.0198253
-0.0175882
-0.0111594
-0.000977804
0.0121763
0.0272834
0.043161
0.0585358
0.0721279
0.0827569
0.0894783
0.0917523
0.0896427
0.0840287
0.0768246
0.0711792
0.00558032
-0.000231027
-0.00569762
-0.00931914
-0.0102859
-0.0080756
-0.00261775
0.0057758
0.0165165
0.028812
0.0417271
0.054248
0.0653581
0.074131
0.0798405
0.082088
0.0809483
0.0770482
0.0713824
0.0655984
0.0129592
0.00489742
-0.00101287
-0.00433375
-0.00509888
-0.00304059
0.00183844
0.00924252
0.0186671
0.0294441
0.0407808
0.0518094
0.0616499
0.0694888
0.0746684
0.0767903
0.0758437
0.0721984
0.0660295
0.0579775
0.019588
0.00844621
0.00110476
-0.00268119
-0.00364645
-0.00175134
0.00289453
0.00995057
0.0189258
0.0292021
0.0400508
0.0506647
0.060207
0.0678756
0.0729791
0.07503
0.0738836
0.0696842
0.0619501
0.0507244
0.023827
0.00945046
0.000400003
-0.0040664
-0.00528844
-0.00342587
0.00130076
0.00848411
0.0176155
0.0280898
0.0392015
0.0501587
0.0601159
0.0682265
0.0737074
0.0759309
0.0745903
0.0696208
0.0599783
0.0453149
0.0244671
0.00681842
-0.00400843
-0.00915546
-0.0105141
-0.00842666
-0.00322636
0.0046001
0.0145069
0.0258787
0.038006
0.0500805
0.0612113
0.070463
0.0769117
0.0797408
0.0784453
0.0727436
0.0610626
0.0427705
0.0204463
-0.000531957
-0.0131012
-0.0187765
-0.0200015
-0.0173059
-0.0111438
-0.00209214
0.00925504
0.0222604
0.0361972
0.0502235
0.0633788
0.074605
0.0827906
0.0868738
0.0860953
0.079911
0.0661748
0.0439933
0.0106546
-0.0137584
-0.0279493
-0.0338447
-0.0345042
-0.0306779
-0.0229609
-0.0120309
0.00146658
0.0168746
0.033453
0.0503277
0.0664618
0.080653
0.0915595
0.0978072
0.0982986
0.0921302
0.0764438
0.0500194
-0.00621822
-0.034223
-0.0498097
-0.0554268
-0.0548893
-0.0492369
-0.039241
-0.0256923
-0.00928131
0.00933404
0.0294251
0.0501101
0.0702921
0.0886221
0.103494
0.113144
0.116019
0.110695
0.0933419
0.0622433
-0.0318211
-0.0636168
-0.0801975
-0.0847536
-0.0821026
-0.0736911
-0.0605195
-0.0435032
-0.023358
-0.00070382
0.0237931
0.0492979
0.0747023
0.0985382
0.118922
0.133624
0.140485
0.137313
0.118883
0.0826535
-0.0683313
-0.104126
-0.120965
-0.123206
-0.117086
-0.104638
-0.0871587
-0.0656918
-0.0409389
-0.0134142
0.016362
0.0476952
0.0795585
0.110442
0.138213
0.160124
0.173235
0.174249
0.155883
0.11415
-0.118795
-0.158694
-0.174401
-0.172269
-0.160636
-0.14237
-0.119133
-0.0920744
-0.0618054
-0.0286279
0.00720906
0.0452912
0.0848247
0.124405
0.161762
0.19364
0.216167
0.224509
0.20833
0.161057
-0.187816
-0.231464
-0.243343
-0.233404
-0.21315
-0.186576
-0.15573
-0.121778
-0.0850978
-0.0456177
-0.00314111
0.0423912
0.0906381
0.140545
0.189944
0.235226
0.271537
0.292043
0.281953
0.230041
-0.28305
-0.328527
-0.331231
-0.307748
-0.274199
-0.235909
-0.195169
-0.152925
-0.109067
-0.0629073
-0.0135755
0.0397039
0.0973311
0.158961
0.222955
0.285767
0.341788
0.381887
0.385097
0.33194
-0.418365
-0.459055
-0.441839
-0.395346
-0.341729
-0.287327
-0.234132
-0.182343
-0.130917
-0.0782133
-0.0224082
0.0382617
0.105271
0.179453
0.26036
0.345354
0.428899
0.499935
0.529912
0.485313
-0.619544
-0.636451
-0.578323
-0.49389
-0.411016
-0.335426
-0.267466
-0.205541
-0.146972
-0.0887175
-0.0277097
0.0390549
0.114446
0.201001
0.300375
0.41229
0.533153
0.651874
0.733116
0.722023
-0.934702
-0.878647
-0.741488
-0.597769
-0.47438
-0.372654
-0.288765
-0.217513
-0.153549
-0.0919291
-0.0281034
0.0423224
0.123837
0.221185
0.339256
0.482309
0.65188
0.841128
1.01571
1.09657
-1.47402
-1.20841
-0.920499
-0.691233
-0.517459
-0.387731
-0.290134
-0.213247
-0.147859
-0.0867949
-0.0240502
0.0460256
0.129475
0.233518
0.367424
0.542793
0.770982
1.05913
1.4053
1.72759
-2.53135
-1.63905
-1.04583
-0.710853
-0.495948
-0.352326
-0.254639
-0.183533
-0.125947
-0.0732122
-0.0187722
0.043341
0.119748
0.219237
0.355164
0.548169
0.826272
1.23808
1.92094
2.91498
-4.34938
-2.04827
-0.973986
-0.563343
-0.358729
-0.24118
-0.170966
-0.124327
-0.0876766
-0.053356
-0.0161853
0.028366
0.0854627
0.162639
0.273264
0.442662
0.718078
1.22583
2.41432
4.82989
)
;

boundaryField
{
    movingWall
    {
        type            zeroGradient;
    }
    fixedWalls
    {
        type            zeroGradient;
    }
    frontAndBack
    {
        type            empty;
    }
}


// ************************************************************************* //
