/*--------------------------------*- C++ -*----------------------------------*\
  =========                 |
  \\      /  F ield         | OpenFOAM: The Open Source CFD Toolbox
   \\    /   O peration     | Website:  https://openfoam.org
    \\  /    A nd           | Version:  6
     \\/     M anipulation  |
\*---------------------------------------------------------------------------*/
FoamFile
{
    version     2.0;
    format      ascii;
    class       surfaceScalarField;
    location    "0.085";
    object      phi;
}
// * * * * * * * * * * * * * * * * * * * * * * * * * * * * * * * * * * * * * //

dimensions      [0 3 -1 0 0 0 0];

internalField   nonuniform List<scalar> 
760
(
1.38876e-08
-1.38715e-08
-2.1898e-08
3.57849e-08
-1.12116e-07
9.02177e-08
-2.40524e-07
1.28408e-07
-3.87781e-07
1.47258e-07
-5.35628e-07
1.47847e-07
-6.68363e-07
1.32735e-07
-7.73413e-07
1.05049e-07
-8.41453e-07
6.80401e-08
-8.66457e-07
2.50043e-08
-8.4583e-07
-2.06271e-08
-7.80652e-07
-6.5178e-08
-6.75981e-07
-1.04671e-07
-5.41095e-07
-1.34886e-07
-3.89513e-07
-1.51582e-07
-2.38557e-07
-1.50956e-07
-1.08125e-07
-1.30432e-07
-1.83633e-08
-8.97618e-08
1.52766e-08
-3.36398e-08
1.52766e-08
-3.35529e-08
1.96817e-08
-1.7664e-07
1.78872e-07
-4.24698e-07
3.38275e-07
-7.47788e-07
4.51498e-07
-1.10727e-06
5.06738e-07
-1.46399e-06
5.04572e-07
-1.78266e-06
4.51406e-07
-2.03409e-06
3.56474e-07
-2.19628e-06
2.30235e-07
-2.25509e-06
8.3809e-08
-2.20467e-06
-7.10442e-08
-2.04805e-06
-2.21794e-07
-1.79758e-06
-3.5514e-07
-1.47511e-06
-4.57361e-07
-1.11149e-06
-5.15202e-07
-7.44946e-07
-5.17499e-07
-4.17631e-07
-4.57747e-07
-1.69803e-07
-3.3759e-07
-3.03861e-08
-1.73057e-07
-1.51095e-08
-9.03076e-08
1.09989e-07
-3.49359e-07
4.37924e-07
-7.48084e-07
7.37001e-07
-1.24099e-06
9.44409e-07
-1.77516e-06
1.0409e-06
-2.29765e-06
1.02707e-06
-2.76056e-06
9.14316e-07
-3.12399e-06
7.19901e-07
-3.35774e-06
4.63991e-07
-3.44237e-06
1.68436e-07
-3.36991e-06
-1.43508e-07
-3.14458e-06
-4.47125e-07
-2.78333e-06
-7.16386e-07
-2.31597e-06
-9.2472e-07
-1.78437e-06
-1.04681e-06
-1.24017e-06
-1.0617e-06
-7.40419e-07
-9.57497e-07
-3.40702e-07
-7.37307e-07
-8.58716e-08
-4.27887e-07
-1.00981e-07
-1.42175e-07
2.52164e-07
-5.14621e-07
8.1037e-07
-1.05943e-06
1.28181e-06
-1.71164e-06
1.59662e-06
-2.40384e-06
1.7331e-06
-3.07172e-06
1.69494e-06
-3.65825e-06
1.50084e-06
-4.11638e-06
1.17803e-06
-4.41068e-06
7.5829e-07
-4.51825e-06
2.76011e-07
-4.42955e-06
-2.32215e-07
-4.14909e-06
-7.27577e-07
-3.69624e-06
-1.16924e-06
-3.10547e-06
-1.51548e-06
-2.42591e-06
-1.72637e-06
-1.7192e-06
-1.76841e-06
-1.05533e-06
-1.62137e-06
-5.06077e-07
-1.28656e-06
-1.36891e-07
-7.97072e-07
-2.37872e-07
-1.8988e-07
4.42043e-07
-6.72181e-07
1.29267e-06
-1.35997e-06
1.9696e-06
-2.16649e-06
2.40314e-06
-3.00882e-06
2.57544e-06
-3.8119e-06
2.49803e-06
-4.51141e-06
2.20035e-06
-5.05544e-06
1.72206e-06
-5.40529e-06
1.10814e-06
-5.53588e-06
4.06606e-07
-5.43628e-06
-3.31822e-07
-5.1104e-06
-1.05345e-06
-4.57808e-06
-1.70157e-06
-3.87598e-06
-2.21758e-06
-3.058e-06
-2.54435e-06
-2.19414e-06
-2.63227e-06
-1.36733e-06
-2.44818e-06
-6.67677e-07
-1.98621e-06
-1.84741e-07
-1.28001e-06
-4.22613e-07
-2.35995e-07
6.78039e-07
-8.27e-07
1.88368e-06
-1.65688e-06
2.79948e-06
-2.61547e-06
3.36173e-06
-3.60345e-06
3.56341e-06
-4.53535e-06
3.42992e-06
-5.34096e-06
3.00596e-06
-5.96535e-06
2.34645e-06
-6.36826e-06
1.51105e-06
-6.5235e-06
5.61848e-07
-6.41883e-06
-4.36493e-07
-6.0566e-06
-1.41568e-06
-5.45523e-06
-2.30294e-06
-4.65116e-06
-3.02164e-06
-3.70077e-06
-3.49475e-06
-2.68109e-06
-3.65195e-06
-1.68835e-06
-3.44092e-06
-8.33264e-07
-2.84129e-06
-2.32938e-07
-1.88033e-06
-6.55551e-07
-2.83059e-07
9.61098e-07
-9.84703e-07
2.58532e-06
-1.95771e-06
3.77248e-06
-3.06672e-06
4.47075e-06
-4.19538e-06
4.69206e-06
-5.24863e-06
4.48318e-06
-6.15221e-06
3.90954e-06
-6.85039e-06
3.04463e-06
-7.30337e-06
1.96403e-06
-7.48513e-06
7.43604e-07
-7.38232e-06
-5.39301e-07
-6.99472e-06
-1.80329e-06
-6.33719e-06
-2.96047e-06
-5.44305e-06
-3.91578e-06
-4.36815e-06
-4.56964e-06
-3.19443e-06
-4.82567e-06
-2.03112e-06
-4.60423e-06
-1.01173e-06
-3.86069e-06
-2.85183e-07
-2.60688e-06
-9.40734e-07
-3.33343e-07
1.29444e-06
-1.15035e-06
3.40233e-06
-2.2683e-06
4.89043e-06
-3.52407e-06
5.72652e-06
-4.78405e-06
5.95205e-06
-5.94544e-06
5.64457e-06
-6.93286e-06
4.89695e-06
-7.69306e-06
3.80484e-06
-8.18959e-06
2.46055e-06
-8.39844e-06
9.52459e-07
-8.30576e-06
-6.31986e-07
-7.90772e-06
-2.20133e-06
-7.21308e-06
-3.65511e-06
-6.2482e-06
-4.88067e-06
-5.06395e-06
-5.75389e-06
-3.74325e-06
-6.14637e-06
-2.40647e-06
-5.94101e-06
-1.21157e-06
-5.05559e-06
-3.45059e-07
-3.47339e-06
-1.28579e-06
-3.89034e-07
1.68347e-06
-1.32841e-06
4.34171e-06
-2.59213e-06
6.15414e-06
-3.98562e-06
7.12001e-06
-5.35862e-06
7.32505e-06
-6.60399e-06
6.88994e-06
-7.65005e-06
5.94301e-06
-8.45094e-06
4.60573e-06
-8.97763e-06
2.98725e-06
-9.21101e-06
1.18583e-06
-9.13778e-06
-7.0521e-07
-8.74975e-06
-2.58936e-06
-8.04662e-06
-4.35824e-06
-7.04273e-06
-5.88455e-06
-5.77751e-06
-7.01911e-06
-4.32813e-06
-7.59575e-06
-2.82154e-06
-7.4476e-06
-1.44042e-06
-6.43671e-06
-4.16148e-07
-4.49767e-06
-1.70194e-06
-4.52859e-07
2.13633e-06
-1.52361e-06
5.41245e-06
-2.93049e-06
7.56103e-06
-4.44276e-06
8.63227e-06
-5.89562e-06
8.77791e-06
-7.18369e-06
8.17802e-06
-8.24639e-06
7.00571e-06
-9.0522e-06
5.41154e-06
-9.58516e-06
3.52021e-06
-9.83494e-06
1.43561e-06
-9.79077e-06
-7.49384e-07
-9.43965e-06
-2.94047e-06
-8.76918e-06
-5.02871e-06
-7.77565e-06
-6.87808e-06
-6.47806e-06
-8.3167e-06
-4.93743e-06
-9.13638e-06
-3.27827e-06
-9.10676e-06
-1.70516e-06
-8.00982e-06
-5.02512e-07
-5.70031e-06
-2.20445e-06
-5.29191e-07
2.66552e-06
-1.74238e-06
6.62564e-06
-3.28278e-06
9.10143e-06
-4.87832e-06
1.02278e-05
-6.35522e-06
1.02548e-05
-7.6201e-06
9.4429e-06
-8.63424e-06
8.01985e-06
-9.38973e-06
6.16703e-06
-9.89077e-06
4.02125e-06
-1.01406e-05
1.68546e-06
-1.01338e-05
-7.562e-07
-9.85298e-06
-3.2213e-06
-9.27107e-06
-5.61062e-06
-8.35983e-06
-7.78932e-06
-7.10677e-06
-9.56975e-06
-5.54171e-06
-1.07014e-05
-3.77105e-06
-1.08774e-05
-2.01219e-06
-9.76868e-06
-6.09586e-07
-7.10292e-06
-2.81404e-06
-6.25904e-07
3.29143e-06
-1.99477e-06
7.99451e-06
-3.64566e-06
1.07523e-05
-5.2623e-06
1.18445e-05
-6.67422e-06
1.16667e-05
-7.81663e-06
1.05853e-05
-8.68754e-06
8.89077e-06
-9.31381e-06
6.7933e-06
-9.72743e-06
4.43487e-06
-9.95041e-06
1.90844e-06
-9.98582e-06
-7.20784e-07
-9.81362e-06
-3.3935e-06
-9.39109e-06
-6.03314e-06
-8.66015e-06
-8.52026e-06
-7.56493e-06
-1.0665e-05
-6.08437e-06
-1.2182e-05
-4.282e-06
-1.26798e-05
-2.36732e-06
-1.16834e-05
-7.45646e-07
-8.72459e-06
-3.55969e-06
-7.5739e-07
4.04882e-06
-2.29565e-06
9.53277e-06
-4.00838e-06
1.2465e-05
-5.54119e-06
1.33773e-05
-6.7522e-06
1.28777e-05
-7.63066e-06
1.14638e-05
-8.23001e-06
9.49012e-06
-8.62325e-06
7.18654e-06
-8.87641e-06
4.68803e-06
-9.03394e-06
2.06597e-06
-9.11059e-06
-6.4414e-07
-9.08659e-06
-3.41749e-06
-8.90579e-06
-6.21395e-06
-8.47872e-06
-8.94733e-06
-7.69668e-06
-1.1447e-05
-6.46573e-06
-1.3413e-05
-4.77088e-06
-1.43746e-05
-2.77381e-06
-1.36804e-05
-9.24117e-07
-1.05743e-05
-4.4838e-06
-9.48951e-07
4.99777e-06
-2.66232e-06
1.12461e-05
-4.33758e-06
1.41403e-05
-5.61365e-06
1.46533e-05
-6.4248e-06
1.36889e-05
-6.85013e-06
1.18891e-05
-7.01812e-06
9.65811e-06
-7.05536e-06
7.22378e-06
-7.06304e-06
4.6957e-06
-7.10762e-06
2.11056e-06
-7.21674e-06
-5.35028e-07
-7.37525e-06
-3.25898e-06
-7.52035e-06
-6.06885e-06
-7.53749e-06
-8.9302e-06
-7.26413e-06
-1.17204e-05
-6.51544e-06
-1.41616e-05
-5.15369e-06
-1.57364e-05
-3.2247e-06
-1.56094e-05
-1.16644e-06
-1.26325e-05
-5.65024e-06
-1.24035e-06
6.23812e-06
-3.09757e-06
1.31033e-05
-4.53622e-06
1.5579e-05
-5.27842e-06
1.53955e-05
-5.41492e-06
1.38254e-05
-5.15648e-06
1.16307e-05
-4.71847e-06
9.2201e-06
-4.27669e-06
6.782e-06
-3.95777e-06
4.37678e-06
-3.84204e-06
1.99483e-06
-3.96722e-06
-4.0985e-07
-4.32748e-06
-2.89872e-06
-4.8659e-06
-5.53042e-06
-5.46101e-06
-8.33509e-06
-5.91288e-06
-1.12685e-05
-5.94512e-06
-1.41294e-05
-5.2566e-06
-1.64249e-05
-3.67725e-06
-1.71888e-05
-1.50157e-06
-1.48082e-05
-7.15181e-06
-1.67434e-06
7.91246e-06
-3.5253e-06
1.49543e-05
-4.34181e-06
1.63955e-05
-4.13106e-06
1.51848e-05
-3.25165e-06
1.2946e-05
-2.07331e-06
1.04523e-05
-8.83806e-07
8.0306e-06
1.19677e-07
5.77852e-06
8.11619e-07
3.68484e-06
1.11669e-06
1.68976e-06
9.95714e-07
-2.8887e-07
4.41923e-07
-2.34493e-06
-5.10791e-07
-4.57771e-06
-1.766e-06
-7.07987e-06
-3.12947e-06
-9.90504e-06
-4.27101e-06
-1.29879e-05
-4.71987e-06
-1.5976e-05
-3.97706e-06
-1.79316e-05
-1.9442e-06
-1.68411e-05
-9.09601e-06
-2.22478e-06
1.01372e-05
-3.59667e-06
1.63262e-05
-3.09867e-06
1.58975e-05
-1.37933e-06
1.34655e-05
8.45917e-07
1.07207e-05
3.08821e-06
8.21001e-06
5.05728e-06
6.06153e-06
6.59667e-06
4.23913e-06
7.62655e-06
2.65496e-06
8.10455e-06
1.21175e-06
8.00393e-06
-1.88254e-07
7.30566e-06
-1.64666e-06
6.00404e-06
-3.27609e-06
4.13e-06
-5.20583e-06
1.80058e-06
-7.57561e-06
-6.98997e-07
-1.04883e-05
-2.8136e-06
-1.38614e-05
-3.66762e-06
-1.70776e-05
-2.40432e-06
-1.81044e-05
-1.15003e-05
-2.54783e-06
1.26851e-05
-2.18572e-06
1.59641e-05
7.03095e-07
1.30087e-05
4.44349e-06
9.72506e-06
8.09426e-06
7.06996e-06
1.1249e-05
5.05525e-06
1.37641e-05
3.54648e-06
1.5613e-05
2.39019e-06
1.68099e-05
1.45803e-06
1.73705e-05
6.5117e-07
1.72936e-05
-1.11286e-07
1.65532e-05
-9.06281e-07
1.50987e-05
-1.8216e-06
1.28663e-05
-2.97349e-06
9.81735e-06
-4.52662e-06
6.03069e-06
-6.70164e-06
1.89378e-06
-9.72452e-06
-1.56296e-06
-1.36208e-05
-2.43082e-06
-1.72365e-05
-1.39312e-05
-8.43973e-07
1.3529e-05
4.06391e-06
1.10562e-05
1.02875e-05
6.78511e-06
1.57778e-05
4.23467e-06
2.01337e-05
2.7141e-06
2.34243e-05
1.76469e-06
2.58179e-05
1.15281e-06
2.74713e-05
7.36852e-07
2.84989e-05
4.30373e-07
2.89695e-05
1.80628e-07
2.89064e-05
-4.82056e-08
2.82869e-05
-2.86823e-07
2.70363e-05
-5.70922e-07
2.50172e-05
-9.54399e-07
2.20219e-05
-1.53134e-06
1.77932e-05
-2.47292e-06
1.21557e-05
-4.08707e-06
5.45474e-06
-6.91985e-06
-1.95704e-07
-1.15861e-05
-1.41269e-05
1.3529e-05
2.45852e-05
3.13704e-05
3.5605e-05
3.83191e-05
4.00838e-05
4.12366e-05
4.19735e-05
4.24039e-05
4.25845e-05
4.25363e-05
4.22495e-05
4.16785e-05
4.07241e-05
3.91928e-05
3.67199e-05
3.26328e-05
2.57129e-05
1.41269e-05
)
;

boundaryField
{
    movingWall
    {
        type            calculated;
        value           uniform 0;
    }
    fixedWalls
    {
        type            calculated;
        value           uniform 0;
    }
    frontAndBack
    {
        type            empty;
        value           nonuniform 0();
    }
}


// ************************************************************************* //
