/*--------------------------------*- C++ -*----------------------------------*\
  =========                 |
  \\      /  F ield         | OpenFOAM: The Open Source CFD Toolbox
   \\    /   O peration     | Website:  https://openfoam.org
    \\  /    A nd           | Version:  6
     \\/     M anipulation  |
\*---------------------------------------------------------------------------*/
FoamFile
{
    version     2.0;
    format      ascii;
    class       volVectorField;
    location    "0.085";
    object      U;
}
// * * * * * * * * * * * * * * * * * * * * * * * * * * * * * * * * * * * * * //

dimensions      [0 1 -1 0 0 0 0];

internalField   nonuniform List<vector> 
400
(
(0.000242966 -0.000239678 0)
(0.000130684 0.000116563 0)
(-0.00115725 0.00056017 0)
(-0.00341258 0.00087303 0)
(-0.00624571 0.00102958 0)
(-0.00926823 0.00104453 0)
(-0.012135 0.00094201 0)
(-0.0145606 0.000747886 0)
(-0.016325 0.000486766 0)
(-0.017274 0.000182225 0)
(-0.0173206 -0.000141757 0)
(-0.0164486 -0.000459324 0)
(-0.0147185 -0.000741811 0)
(-0.0122736 -0.000957726 0)
(-0.00934327 -0.00107394 0)
(-0.00624046 -0.00105878 0)
(-0.00334575 -0.000887979 0)
(-0.00107491 -0.000554138 0)
(0.000183024 -9.6811e-05 0)
(0.000257184 0.000251937 0)
(-8.3349e-05 -0.000157995 0)
(-0.00158641 0.00161929 0)
(-0.0055729 0.0035478 0)
(-0.0114656 0.00493138 0)
(-0.0184785 0.00562128 0)
(-0.0258166 0.00563582 0)
(-0.0327237 0.00505945 0)
(-0.0385461 0.0040046 0)
(-0.0427679 0.00259317 0)
(-0.045025 0.000951529 0)
(-0.0451152 -0.000787828 0)
(-0.0430081 -0.00248333 0)
(-0.0388561 -0.00398314 0)
(-0.0330019 -0.00512823 0)
(-0.0259776 -0.00576176 0)
(-0.0184866 -0.00574748 0)
(-0.0113504 -0.00500036 0)
(-0.00541699 -0.00353094 0)
(-0.00147805 -0.00154202 0)
(-5.04128e-05 0.000214094 0)
(-0.000525131 0.00107237 0)
(-0.00364017 0.00561581 0)
(-0.0103615 0.010003 0)
(-0.0195597 0.0131106 0)
(-0.0300968 0.0146097 0)
(-0.0409093 0.0145014 0)
(-0.0509782 0.012954 0)
(-0.0594127 0.0102214 0)
(-0.0655051 0.00659765 0)
(-0.0687551 0.00239943 0)
(-0.0688855 -0.002037 0)
(-0.0658559 -0.00635376 0)
(-0.0598764 -0.0101727 0)
(-0.0514158 -0.0131066 0)
(-0.0411982 -0.0147849 0)
(-0.0301758 -0.0149007 0)
(-0.019454 -0.0132817 0)
(-0.0101736 -0.00998545 0)
(-0.00349445 -0.0054542 0)
(-0.0004772 -0.000938788 0)
(-0.00091742 0.00340911 0)
(-0.00558248 0.0119614 0)
(-0.0149871 0.019493 0)
(-0.0273442 0.0246473 0)
(-0.0411238 0.0269863 0)
(-0.0550231 0.0265324 0)
(-0.0678245 0.0235718 0)
(-0.0784746 0.0185382 0)
(-0.0861419 0.0119418 0)
(-0.0902397 0.00433777 0)
(-0.09044 -0.00368236 0)
(-0.0866895 -0.0114903 0)
(-0.0792241 -0.0184257 0)
(-0.0685822 -0.0238157 0)
(-0.0556063 -0.0270208 0)
(-0.0414211 -0.0275125 0)
(-0.027356 -0.0249883 0)
(-0.014827 -0.019514 0)
(-0.00541874 -0.0117134 0)
(-0.000856167 -0.0031742 0)
(-0.00126455 0.00673785 0)
(-0.00740443 0.0205216 0)
(-0.0194365 0.0318345 0)
(-0.0348787 0.039259 0)
(-0.0517709 0.0423684 0)
(-0.0685682 0.041288 0)
(-0.0838825 0.0364794 0)
(-0.0965422 0.0285984 0)
(-0.105638 0.0184041 0)
(-0.11053 0.00671695 0)
(-0.110856 -0.00559205 0)
(-0.106542 -0.0175996 0)
(-0.0978209 -0.0283336 0)
(-0.0852532 -0.0367987 0)
(-0.0697469 -0.0420376 0)
(-0.0525539 -0.0432393 0)
(-0.0352076 -0.0398965 0)
(-0.0194204 -0.0319943 0)
(-0.00726499 -0.0202288 0)
(-0.00119577 -0.00639173 0)
(-0.00159345 0.010997 0)
(-0.00918131 0.0312529 0)
(-0.0238274 0.0470107 0)
(-0.0423296 0.0569182 0)
(-0.062268 0.0606915 0)
(-0.0818491 0.0586675 0)
(-0.0995344 0.0515631 0)
(-0.11407 0.0403086 0)
(-0.124506 0.0259429 0)
(-0.13018 0.00956656 0)
(-0.130709 -0.00766412 0)
(-0.125988 -0.0245257 0)
(-0.116217 -0.0397219 0)
(-0.101934 -0.0519056 0)
(-0.0840614 -0.0597489 0)
(-0.0639378 -0.0620773 0)
(-0.043288 -0.058071 0)
(-0.0241475 -0.0475079 0)
(-0.00914361 -0.0310323 0)
(-0.0015306 -0.0105579 0)
(-0.00192991 0.0161801 0)
(-0.010997 0.0441666 0)
(-0.0282964 0.0650352 0)
(-0.0498591 0.0776084 0)
(-0.0727767 0.0818921 0)
(-0.09501 0.0785679 0)
(-0.114899 0.0687071 0)
(-0.131152 0.0535769 0)
(-0.142824 0.0345236 0)
(-0.149266 0.0129299 0)
(-0.150087 -0.00977547 0)
(-0.145146 -0.0320854 0)
(-0.134577 -0.0523859 0)
(-0.118841 -0.0689601 0)
(-0.0988142 -0.0800544 0)
(-0.0758645 -0.0840305 0)
(-0.0518788 -0.0796132 0)
(-0.0292321 -0.0662068 0)
(-0.0111813 -0.0442516 0)
(-0.00189643 -0.015716 0)
(-0.00229706 0.0223294 0)
(-0.0129297 0.0593314 0)
(-0.032964 0.0859425 0)
(-0.0575768 0.101288 0)
(-0.083339 0.105845 0)
(-0.107986 0.100803 0)
(-0.129789 0.0877096 0)
(-0.147484 0.0682381 0)
(-0.160197 0.0440641 0)
(-0.16734 0.0168385 0)
(-0.168543 -0.0117748 0)
(-0.163623 -0.0400283 0)
(-0.152611 -0.0660224 0)
(-0.135829 -0.0876721 0)
(-0.114014 -0.102749 0)
(-0.088476 -0.109034 0)
(-0.0611976 -0.104616 0)
(-0.0348828 -0.0883016 0)
(-0.0135039 -0.0601156 0)
(-0.0023284 -0.0219831 0)
(-0.00271847 0.0295308 0)
(-0.0150554 0.0768675 0)
(-0.0379282 0.109769 0)
(-0.0655187 0.127849 0)
(-0.0938412 0.132296 0)
(-0.120455 0.125024 0)
(-0.143655 0.108202 0)
(-0.162304 0.0839822 0)
(-0.175692 0.0543812 0)
(-0.183367 0.0212814 0)
(-0.185018 -0.0134846 0)
(-0.180425 -0.0480077 0)
(-0.169481 -0.0801713 0)
(-0.152283 -0.107556 0)
(-0.129316 -0.127428 0)
(-0.101687 -0.136867 0)
(-0.0713487 -0.133101 0)
(-0.0412736 -0.114029 0)
(-0.016236 -0.078946 0)
(-0.0028641 -0.0295481 0)
(-0.00322605 0.0379171 0)
(-0.0174661 0.0969375 0)
(-0.0432787 0.136512 0)
(-0.0736399 0.157037 0)
(-0.10398 0.160764 0)
(-0.131782 0.150611 0)
(-0.155508 0.129541 0)
(-0.174303 0.100261 0)
(-0.187747 0.0651197 0)
(-0.195618 0.0261629 0)
(-0.197727 -0.0147115 0)
(-0.193834 -0.0555543 0)
(-0.18366 -0.0941499 0)
(-0.16699 -0.127828 0)
(-0.143897 -0.15336 0)
(-0.11509 -0.167018 0)
(-0.0822704 -0.164899 0)
(-0.0485338 -0.143581 0)
(-0.0195136 -0.101137 0)
(-0.00355122 -0.0386746 0)
(-0.0038743 0.0476886 0)
(-0.0203029 0.119745 0)
(-0.0491199 0.166072 0)
(-0.0818013 0.188346 0)
(-0.113204 0.190402 0)
(-0.140923 0.176528 0)
(-0.163815 0.150686 0)
(-0.18151 0.116189 0)
(-0.194047 0.0756752 0)
(-0.201551 0.0312508 0)
(-0.20403 -0.0152686 0)
(-0.201258 -0.0620638 0)
(-0.192767 -0.106996 0)
(-0.177943 -0.147299 0)
(-0.156279 -0.179333 0)
(-0.127809 -0.1985 0)
(-0.0936537 -0.19949 0)
(-0.0567333 -0.176999 0)
(-0.0235053 -0.127125 0)
(-0.0044613 -0.0497197 0)
(-0.00476586 0.0591627 0)
(-0.0238053 0.14554 0)
(-0.0555884 0.198163 0)
(-0.0897168 0.220858 0)
(-0.120596 0.219816 0)
(-0.146269 0.201168 0)
(-0.166324 0.170064 0)
(-0.181139 0.130438 0)
(-0.191394 0.085121 0)
(-0.197688 0.0361223 0)
(-0.200303 -0.0150122 0)
(-0.19908 -0.0668071 0)
(-0.193376 -0.117437 0)
(-0.182126 -0.164281 0)
(-0.164077 -0.203481 0)
(-0.138278 -0.229624 0)
(-0.104795 -0.235748 0)
(-0.0658393 -0.213995 0)
(-0.0284426 -0.15735 0)
(-0.005714 -0.0631753 0)
(-0.00609681 0.0728772 0)
(-0.0283779 0.174621 0)
(-0.0628262 0.232145 0)
(-0.09679 0.252991 0)
(-0.124608 0.246827 0)
(-0.145352 0.22216 0)
(-0.159801 0.185455 0)
(-0.169376 0.141177 0)
(-0.175559 0.0921644 0)
(-0.17951 0.0401229 0)
(-0.181852 -0.0138888 0)
(-0.182551 -0.0689773 0)
(-0.180847 -0.123909 0)
(-0.175249 -0.176536 0)
(-0.163674 -0.223131 0)
(-0.143889 -0.257712 0)
(-0.114313 -0.271596 0)
(-0.0755978 -0.253655 0)
(-0.0346529 -0.192156 0)
(-0.00751895 -0.0797539 0)
(-0.00822996 0.0897689 0)
(-0.0346509 0.207263 0)
(-0.0708051 0.266692 0)
(-0.101691 0.282102 0)
(-0.122523 0.268155 0)
(-0.134326 0.236201 0)
(-0.13962 0.193942 0)
(-0.141112 0.146086 0)
(-0.141146 0.095182 0)
(-0.14143 0.0423732 0)
(-0.142923 -0.0119822 0)
(-0.145771 -0.067787 0)
(-0.149217 -0.124672 0)
(-0.151494 -0.181345 0)
(-0.149784 -0.234723 0)
(-0.140431 -0.278812 0)
(-0.119616 -0.303513 0)
(-0.0852214 -0.293931 0)
(-0.0425491 -0.231575 0)
(-0.0102368 -0.100526 0)
(-0.0117737 0.111431 0)
(-0.0433999 0.24342 0)
(-0.0787136 0.299117 0)
(-0.101351 0.303887 0)
(-0.10939 0.279106 0)
(-0.107082 0.239025 0)
(-0.0991648 0.19206 0)
(-0.0896389 0.142584 0)
(-0.0815311 0.0924161 0)
(-0.0768936 0.041873 0)
(-0.0768983 -0.00953949 0)
(-0.0818827 -0.0626341 0)
(-0.0912685 -0.118082 0)
(-0.10334 -0.175799 0)
(-0.114936 -0.233981 0)
(-0.121233 -0.287548 0)
(-0.11588 -0.32596 0)
(-0.0925997 -0.330801 0)
(-0.0523958 -0.274771 0)
(-0.0144128 -0.127077 0)
(-0.0174771 0.140499 0)
(-0.0548042 0.281835 0)
(-0.0831629 0.324091 0)
(-0.0887681 0.311584 0)
(-0.0761162 0.27343 0)
(-0.0539284 0.225729 0)
(-0.0291034 0.176343 0)
(-0.00641625 0.128383 0)
(0.0110134 0.082425 0)
(0.0212596 0.0377645 0)
(0.0232204 -0.0069406 0)
(0.0164287 -0.0533298 0)
(0.00108958 -0.103072 0)
(-0.0216247 -0.157453 0)
(-0.0489981 -0.216526 0)
(-0.0759564 -0.277362 0)
(-0.0941906 -0.330869 0)
(-0.0923961 -0.356964 0)
(-0.0632586 -0.31887 0)
(-0.0205266 -0.16172 0)
(-0.0252018 0.181507 0)
(-0.0655929 0.31776 0)
(-0.0736162 0.33105 0)
(-0.0486502 0.294823 0)
(-0.00643985 0.243512 0)
(0.0400374 0.191659 0)
(0.0831662 0.144387 0)
(0.118791 0.102444 0)
(0.144767 0.0647942 0)
(0.16001 0.0297598 0)
(0.163897 -0.00458545 0)
(0.15598 -0.0403401 0)
(0.135951 -0.0797887 0)
(0.103905 -0.125337 0)
(0.0610281 -0.179077 0)
(0.010899 -0.241364 0)
(-0.0384313 -0.307292 0)
(-0.0719662 -0.359764 0)
(-0.0697993 -0.356499 0)
(-0.0276061 -0.20805 0)
(-0.0289702 0.238664 0)
(-0.0602032 0.336119 0)
(-0.0221674 0.300504 0)
(0.0500937 0.239832 0)
(0.126931 0.182549 0)
(0.196095 0.134971 0)
(0.253152 0.0970156 0)
(0.296835 0.0665452 0)
(0.327238 0.0411572 0)
(0.344785 0.0187039 0)
(0.349683 -0.00274339 0)
(0.341682 -0.0251001 0)
(0.319994 -0.0505291 0)
(0.283374 -0.0817242 0)
(0.230555 -0.12209 0)
(0.16143 -0.17532 0)
(0.079352 -0.243155 0)
(-0.00347988 -0.319102 0)
(-0.053921 -0.368868 0)
(-0.027668 -0.266947 0)
(0.00961049 0.280865 0)
(0.0212297 0.294805 0)
(0.138775 0.210879 0)
(0.264092 0.143343 0)
(0.363973 0.0970552 0)
(0.439791 0.0656603 0)
(0.49597 0.0441368 0)
(0.535931 0.0288097 0)
(0.562378 0.0171554 0)
(0.577169 0.00747882 0)
(0.581237 -0.00146331 0)
(0.574605 -0.0107823 0)
(0.556323 -0.0217606 0)
(0.524293 -0.0362339 0)
(0.475104 -0.0571488 0)
(0.404021 -0.0892601 0)
(0.304669 -0.139598 0)
(0.17298 -0.216228 0)
(0.0427037 -0.311328 0)
(0.0201185 -0.298852 0)
(0.300975 0.145473 0)
(0.397775 0.127061 0)
(0.557516 0.0759138 0)
(0.674444 0.043667 0)
(0.743811 0.0255682 0)
(0.786968 0.0152601 0)
(0.815197 0.00923582 0)
(0.833589 0.00553182 0)
(0.844967 0.00304698 0)
(0.850928 0.0011663 0)
(0.852225 -0.000486191 0)
(0.848968 -0.00220598 0)
(0.840633 -0.0043349 0)
(0.825839 -0.00742544 0)
(0.80186 -0.0125326 0)
(0.76349 -0.0217561 0)
(0.698991 -0.0392152 0)
(0.583926 -0.0724529 0)
(0.417313 -0.127339 0)
(0.310266 -0.148801 0)
)
;

boundaryField
{
    movingWall
    {
        type            fixedValue;
        value           uniform (1 0 0);
    }
    fixedWalls
    {
        type            noSlip;
    }
    frontAndBack
    {
        type            empty;
    }
}


// ************************************************************************* //
