/*--------------------------------*- C++ -*----------------------------------*\
  =========                 |
  \\      /  F ield         | OpenFOAM: The Open Source CFD Toolbox
   \\    /   O peration     | Website:  https://openfoam.org
    \\  /    A nd           | Version:  6
     \\/     M anipulation  |
\*---------------------------------------------------------------------------*/
FoamFile
{
    version     2.0;
    format      ascii;
    class       surfaceScalarField;
    location    "0.07";
    object      phi;
}
// * * * * * * * * * * * * * * * * * * * * * * * * * * * * * * * * * * * * * //

dimensions      [0 3 -1 0 0 0 0];

internalField   nonuniform List<scalar> 
760
(
1.23485e-08
-1.23502e-08
-2.22383e-08
3.45872e-08
-1.07472e-07
8.52337e-08
-2.27834e-07
1.20362e-07
-3.65268e-07
1.37434e-07
-5.02939e-07
1.37671e-07
-6.26483e-07
1.23544e-07
-7.24425e-07
9.79422e-08
-7.88214e-07
6.37892e-08
-8.12226e-07
2.40114e-08
-7.93889e-07
-1.83369e-08
-7.33959e-07
-5.99291e-08
-6.36874e-07
-9.70849e-08
-5.11061e-07
-1.25813e-07
-3.69031e-07
-1.4203e-07
-2.27012e-07
-1.42019e-07
-1.03797e-07
-1.23215e-07
-1.85321e-08
-8.52651e-08
1.39492e-08
-3.24812e-08
1.39492e-08
-3.24862e-08
2.01359e-08
-1.67846e-07
1.69947e-07
-4.00736e-07
3.18124e-07
-7.0268e-07
4.22306e-07
-1.03763e-06
4.72381e-07
-1.36946e-06
4.69505e-07
-1.66583e-06
4.19915e-07
-1.90005e-06
3.32158e-07
-2.05192e-06
2.15666e-07
-2.10826e-06
8.03517e-08
-2.06333e-06
-6.32739e-08
-1.9194e-06
-2.03855e-07
-1.68739e-06
-3.29095e-07
-1.38716e-06
-4.26045e-07
-1.04724e-06
-4.81953e-07
-7.03369e-07
-4.85886e-07
-3.95326e-07
-4.31259e-07
-1.61357e-07
-3.19234e-07
-2.91971e-08
-1.64641e-07
-1.5248e-08
-8.55158e-08
1.05652e-07
-3.29262e-07
4.13694e-07
-7.02893e-07
6.91755e-07
-1.16334e-06
8.82752e-07
-1.66122e-06
9.70266e-07
-2.14768e-06
9.55958e-07
-2.57872e-06
8.50954e-07
-2.91778e-06
6.7122e-07
-3.13708e-06
4.34967e-07
-3.21843e-06
1.61707e-07
-3.15397e-06
-1.27741e-07
-2.94686e-06
-4.10959e-07
-2.61208e-06
-6.63876e-07
-2.17672e-06
-8.61407e-07
-1.6795e-06
-9.79167e-07
-1.16882e-06
-9.96574e-07
-6.9858e-07
-9.01495e-07
-3.21705e-07
-6.96108e-07
-8.11251e-08
-4.05221e-07
-9.63731e-08
-1.34071e-07
2.39723e-07
-4.84293e-07
7.63916e-07
-9.95257e-07
1.20272e-06
-1.60557e-06
1.49307e-06
-2.25229e-06
1.61698e-06
-2.87587e-06
1.57954e-06
-3.42384e-06
1.39892e-06
-3.85294e-06
1.10032e-06
-4.13041e-06
7.12436e-07
-4.23471e-06
2.66006e-07
-4.15625e-06
-2.06199e-07
-3.89826e-06
-6.68949e-07
-3.4777e-06
-1.08444e-06
-2.92591e-06
-1.4132e-06
-2.28843e-06
-1.61665e-06
-1.62324e-06
-1.66177e-06
-9.96824e-07
-1.52791e-06
-4.77844e-07
-1.21509e-06
-1.2902e-07
-7.54045e-07
-2.25393e-07
-1.79281e-07
4.19004e-07
-6.33949e-07
1.21858e-06
-1.28113e-06
1.84991e-06
-2.03877e-06
2.25071e-06
-2.82921e-06
2.40742e-06
-3.58272e-06
2.33306e-06
-4.23988e-06
2.05607e-06
-4.75271e-06
1.61316e-06
-5.0852e-06
1.04492e-06
-5.21349e-06
3.94294e-07
-5.12637e-06
-2.93319e-07
-4.82616e-06
-9.6915e-07
-4.33002e-06
-1.58058e-06
-3.67121e-06
-2.07201e-06
-2.89984e-06
-2.38801e-06
-2.0822e-06
-2.47941e-06
-1.29768e-06
-2.31243e-06
-6.33071e-07
-1.87969e-06
-1.74666e-07
-1.21245e-06
-4.00058e-07
-2.23853e-07
6.42857e-07
-7.83778e-07
1.77851e-06
-1.56886e-06
2.63498e-06
-2.47456e-06
3.15641e-06
-3.40746e-06
3.34032e-06
-4.28781e-06
3.21341e-06
-5.0504e-06
2.81865e-06
-5.64412e-06
2.20688e-06
-6.03116e-06
1.43196e-06
-6.18621e-06
5.49348e-07
-6.09642e-06
-3.83111e-07
-5.7622e-06
-1.30337e-06
-5.19903e-06
-2.14375e-06
-4.4398e-06
-2.83124e-06
-3.53713e-06
-3.29068e-06
-2.56452e-06
-3.45202e-06
-1.61497e-06
-3.26199e-06
-7.96156e-07
-2.6985e-06
-2.21844e-07
-1.78676e-06
-6.21902e-07
-2.7034e-07
9.13197e-07
-9.39599e-07
2.44777e-06
-1.86648e-06
3.56187e-06
-2.92194e-06
4.21187e-06
-3.99596e-06
4.41434e-06
-4.99934e-06
4.21679e-06
-5.86263e-06
3.68194e-06
-6.53359e-06
2.87784e-06
-6.97437e-06
1.87275e-06
-7.15933e-06
7.34311e-07
-7.07406e-06
-4.68378e-07
-6.71603e-06
-1.6614e-06
-6.09689e-06
-2.76289e-06
-5.24634e-06
-3.68179e-06
-4.21665e-06
-4.32037e-06
-3.0866e-06
-4.58207e-06
-1.96287e-06
-4.38572e-06
-9.7674e-07
-3.68464e-06
-2.74455e-07
-2.48905e-06
-8.96357e-07
-3.20934e-07
1.23413e-06
-1.10634e-06
3.23317e-06
-2.17976e-06
4.63529e-06
-3.38482e-06
5.41693e-06
-4.59445e-06
5.62397e-06
-5.71151e-06
5.33385e-06
-6.66498e-06
4.63541e-06
-7.40444e-06
3.6173e-06
-7.89467e-06
2.36297e-06
-8.11142e-06
9.51059e-07
-8.03921e-06
-5.40586e-07
-7.67155e-06
-2.02907e-06
-7.01377e-06
-3.42067e-06
-6.08857e-06
-4.60699e-06
-4.94345e-06
-5.46549e-06
-3.6587e-06
-5.86681e-06
-2.35315e-06
-5.69127e-06
-1.18387e-06
-4.85391e-06
-3.36254e-07
-3.33667e-06
-1.23261e-06
-3.77638e-07
1.61177e-06
-1.28796e-06
4.14349e-06
-2.51145e-06
5.85877e-06
-3.8605e-06
6.76599e-06
-5.1913e-06
6.95476e-06
-6.40181e-06
6.54436e-06
-7.42385e-06
5.65745e-06
-8.21339e-06
4.40685e-06
-8.74174e-06
2.89132e-06
-8.98876e-06
1.19808e-06
-8.93907e-06
-5.90279e-07
-8.58146e-06
-2.38668e-06
-7.9121e-06
-4.09003e-06
-6.94168e-06
-5.57741e-06
-5.70642e-06
-6.70075e-06
-4.28144e-06
-7.29179e-06
-2.79324e-06
-7.17948e-06
-1.42551e-06
-6.22164e-06
-4.10965e-07
-4.35121e-06
-1.64358e-06
-4.42859e-07
2.05463e-06
-1.48834e-06
5.18898e-06
-2.86152e-06
7.23194e-06
-4.33875e-06
8.24322e-06
-5.76122e-06
8.37724e-06
-7.02763e-06
7.81077e-06
-8.07951e-06
6.70933e-06
-8.88584e-06
5.21317e-06
-9.42988e-06
3.43537e-06
-9.69957e-06
1.46776e-06
-9.68165e-06
-6.08198e-07
-9.36007e-06
-2.70826e-06
-8.71892e-06
-4.73117e-06
-7.75094e-06
-6.54539e-06
-6.47206e-06
-7.97963e-06
-4.94157e-06
-8.82227e-06
-3.28449e-06
-8.83656e-06
-1.70851e-06
-7.79761e-06
-5.02752e-07
-5.55698e-06
-2.14633e-06
-5.20513e-07
2.57514e-06
-1.71277e-06
6.38123e-06
-3.22762e-06
8.7468e-06
-4.80027e-06
9.81587e-06
-6.26193e-06
9.8389e-06
-7.52159e-06
9.07042e-06
-8.54071e-06
7.72845e-06
-9.31016e-06
5.98263e-06
-9.83217e-06
3.95737e-06
-1.01077e-05
1.74327e-06
-1.01287e-05
-5.87213e-07
-9.87503e-06
-2.96189e-06
-9.31667e-06
-5.28953e-06
-8.42209e-06
-7.43998e-06
-7.17578e-06
-9.22594e-06
-5.60576e-06
-1.03923e-05
-3.81932e-06
-1.0623e-05
-2.03873e-06
-9.5782e-06
-6.17066e-07
-6.97864e-06
-2.76339e-06
-6.1791e-07
3.19305e-06
-1.96997e-06
7.73329e-06
-3.60469e-06
1.03815e-05
-5.21303e-06
1.14242e-05
-6.62781e-06
1.12537e-05
-7.78399e-06
1.02266e-05
-8.67719e-06
8.62164e-06
-9.33104e-06
6.63648e-06
-9.77442e-06
4.40075e-06
-1.00267e-05
1.99558e-06
-1.0089e-05
-5.24968e-07
-9.93926e-06
-3.11161e-06
-9.53288e-06
-5.69591e-06
-8.80927e-06
-8.1636e-06
-7.70966e-06
-1.03255e-05
-6.21066e-06
-1.18913e-05
-4.37597e-06
-1.24577e-05
-2.42054e-06
-1.15336e-05
-7.62062e-07
-8.63712e-06
-3.52546e-06
-7.48851e-07
3.9419e-06
-2.27386e-06
9.2583e-06
-3.98103e-06
1.20887e-05
-5.52267e-06
1.29659e-05
-6.75717e-06
1.24882e-05
-7.6699e-06
1.11393e-05
-8.30873e-06
9.26048e-06
-8.7414e-06
7.06915e-06
-9.02997e-06
4.68932e-06
-9.21652e-06
2.18212e-06
-9.31476e-06
-4.26724e-07
-9.30477e-06
-3.12159e-06
-9.13021e-06
-5.87047e-06
-8.70066e-06
-8.59315e-06
-7.90511e-06
-1.11211e-05
-6.64641e-06
-1.315e-05
-4.90771e-06
-1.41964e-05
-2.85452e-06
-1.35868e-05
-9.50795e-07
-1.05408e-05
-4.47625e-06
-9.38238e-07
4.88014e-06
-2.64183e-06
1.09619e-05
-4.32448e-06
1.37713e-05
-5.6295e-06
1.42709e-05
-6.48668e-06
1.33454e-05
-6.96657e-06
1.16192e-05
-7.18881e-06
9.48272e-06
-7.27309e-06
7.15344e-06
-7.3164e-06
4.73263e-06
-7.38366e-06
2.24939e-06
-7.50317e-06
-3.07217e-07
-7.66189e-06
-2.96288e-06
-7.79947e-06
-5.73289e-06
-7.8029e-06
-8.58972e-06
-7.50892e-06
-1.14151e-05
-6.72907e-06
-1.39298e-05
-5.32073e-06
-1.56047e-05
-3.32887e-06
-1.55787e-05
-1.20382e-06
-1.26659e-05
-5.68007e-06
-1.22615e-06
6.10629e-06
-3.07933e-06
1.28151e-05
-4.54286e-06
1.52349e-05
-5.33754e-06
1.50655e-05
-5.54283e-06
1.35507e-05
-5.35604e-06
1.14324e-05
-4.98133e-06
9.10801e-06
-4.58716e-06
6.75926e-06
-4.29667e-06
4.44214e-06
-4.19008e-06
2.1428e-06
-4.30771e-06
-1.8959e-07
-4.64827e-06
-2.62232e-06
-5.16033e-06
-5.22082e-06
-5.72735e-06
-8.0227e-06
-6.15175e-06
-1.09907e-05
-6.15478e-06
-1.39268e-05
-5.42786e-06
-1.63317e-05
-3.79283e-06
-1.72137e-05
-1.54805e-06
-1.49107e-05
-7.22813e-06
-1.65767e-06
7.76396e-06
-3.5176e-06
1.4675e-05
-4.38337e-06
1.61006e-05
-4.25034e-06
1.49325e-05
-3.45831e-06
1.27586e-05
-2.36046e-06
1.03346e-05
-1.23346e-06
7.98102e-06
-2.68672e-07
5.79448e-06
4.10039e-07
3.76343e-06
7.25821e-07
1.82702e-06
6.35388e-07
-9.91574e-08
1.25721e-07
-2.11265e-06
-7.77194e-07
-4.31791e-06
-1.98539e-06
-6.8145e-06
-3.31146e-06
-9.6646e-06
-4.42696e-06
-1.28113e-05
-4.85427e-06
-1.59044e-05
-4.07958e-06
-1.79884e-05
-1.99351e-06
-1.69967e-05
-9.22164e-06
-2.21368e-06
9.97764e-06
-3.62126e-06
1.60826e-05
-3.20203e-06
1.56814e-05
-1.58001e-06
1.33105e-05
5.52134e-07
1.06265e-05
2.72022e-06
8.16647e-06
4.64113e-06
6.06012e-06
6.16054e-06
4.27506e-06
7.19792e-06
2.72605e-06
7.70826e-06
1.31668e-06
7.66051e-06
-5.14083e-08
7.02944e-06
-1.48159e-06
5.80102e-06
-3.08949e-06
3.99577e-06
-5.00925e-06
1.71946e-06
-7.3883e-06
-7.51173e-07
-1.03407e-05
-2.86048e-06
-1.3795e-05
-3.71775e-06
-1.71311e-05
-2.44066e-06
-1.82738e-05
-1.16623e-05
-2.56448e-06
1.25421e-05
-2.27719e-06
1.57953e-05
5.11884e-07
1.28923e-05
4.15651e-06
9.66586e-06
7.73237e-06
7.05064e-06
1.08391e-05
5.05969e-06
1.33331e-05
3.56613e-06
1.51859e-05
2.42229e-06
1.64093e-05
1.50267e-06
1.70167e-05
7.09307e-07
1.70041e-05
-3.88353e-08
1.63418e-05
-8.19319e-07
1.49733e-05
-1.72093e-06
1.28258e-05
-2.86177e-06
9.8481e-06
-4.41062e-06
6.10454e-06
-6.59712e-06
1.97181e-06
-9.66231e-06
-1.51612e-06
-1.36432e-05
-2.4246e-06
-1.73653e-05
-1.40869e-05
-9.19578e-07
1.34617e-05
3.89031e-06
1.09854e-05
1.00301e-05
6.75255e-06
1.54626e-05
4.23338e-06
1.97878e-05
2.72541e-06
2.30696e-05
1.77795e-06
2.54705e-05
1.16522e-06
2.71438e-05
7.4895e-07
2.8203e-05
4.43492e-07
2.87163e-05
1.96011e-07
2.8707e-05
-2.95988e-08
2.81519e-05
-2.64216e-07
2.69745e-05
-5.43501e-07
2.50339e-05
-9.2115e-07
2.21148e-05
-1.49148e-06
1.79462e-05
-2.42854e-06
1.2334e-05
-4.05013e-06
5.60775e-06
-6.91697e-06
-1.17415e-07
-1.16402e-05
-1.42043e-05
1.34617e-05
2.44471e-05
3.11996e-05
3.5433e-05
3.81584e-05
3.99364e-05
4.11016e-05
4.18506e-05
4.2294e-05
4.24901e-05
4.24605e-05
4.21962e-05
4.16527e-05
4.07316e-05
3.92401e-05
3.68116e-05
3.27615e-05
2.58445e-05
1.42043e-05
)
;

boundaryField
{
    movingWall
    {
        type            calculated;
        value           uniform 0;
    }
    fixedWalls
    {
        type            calculated;
        value           uniform 0;
    }
    frontAndBack
    {
        type            empty;
        value           nonuniform 0();
    }
}


// ************************************************************************* //
