/*--------------------------------*- C++ -*----------------------------------*\
  =========                 |
  \\      /  F ield         | OpenFOAM: The Open Source CFD Toolbox
   \\    /   O peration     | Website:  https://openfoam.org
    \\  /    A nd           | Version:  6
     \\/     M anipulation  |
\*---------------------------------------------------------------------------*/
FoamFile
{
    version     2.0;
    format      ascii;
    class       volScalarField;
    location    "0.01";
    object      p;
}
// * * * * * * * * * * * * * * * * * * * * * * * * * * * * * * * * * * * * * //

dimensions      [0 2 -2 0 0 0 0];

internalField   nonuniform List<scalar> 
400
(
-2.0564e-08
-0.00301798
-0.00465206
-0.00355346
0.000450099
0.00717495
0.0162669
0.0272777
0.0397096
0.0530337
0.0666982
0.0801373
0.092781
0.104067
0.113455
0.120454
0.124676
0.125929
0.124386
0.121398
0.00287629
-0.000237094
-0.00131937
0.000157001
0.00412429
0.0104927
0.019017
0.0293245
0.0409698
0.0534615
0.0662779
0.078881
0.090731
0.101304
0.110114
0.116745
0.120919
0.122532
0.121523
0.118434
0.00453499
0.000536954
-0.000688801
0.000866978
0.00484998
0.0111556
0.0195609
0.0297121
0.04118
0.0534859
0.0661181
0.0785464
0.090239
0.100681
0.109397
0.115983
0.120179
0.121858
0.120674
0.116668
0.00378106
-0.00119181
-0.00279451
-0.00125442
0.00285597
0.00938071
0.0180742
0.0285647
0.0404104
0.0531223
0.0661783
0.0790365
0.0911508
0.101988
0.111051
0.117905
0.122255
0.123918
0.122329
0.117311
0.000293271
-0.00558099
-0.00755715
-0.00597291
-0.0015646
0.00545602
0.0148025
0.0260648
0.038769
0.0523982
0.0664035
0.0802155
0.093256
0.104954
0.114762
0.122193
0.126893
0.128615
0.12663
0.120672
-0.0061734
-0.0129934
-0.0153301
-0.0135863
-0.008654
-0.000811368
0.00959623
0.0221005
0.0361773
0.0512666
0.0667791
0.0821038
0.0966155
0.109685
0.120695
0.129073
0.134383
0.136297
0.133931
0.126973
-0.0159225
-0.0238711
-0.0265786
-0.024518
-0.0187749
-0.00971879
0.00222088
0.0164945
0.0325102
0.0496513
0.0672785
0.0847298
0.101321
0.116348
0.129096
0.138878
0.145139
0.147431
0.144671
0.136502
-0.0293989
-0.038787
-0.0418917
-0.0393011
-0.0323788
-0.0216318
-0.00760903
0.00903107
0.027611
0.0474492
0.0678522
0.0881047
0.107458
0.12512
0.140256
0.152018
0.159679
0.162613
0.159431
0.149695
-0.0472596
-0.0585404
-0.0620687
-0.0586416
-0.0500493
-0.0370112
-0.0202462
-0.000554424
0.0212856
0.0445251
0.0684226
0.0922183
0.115105
0.136198
0.154517
0.169008
0.178693
0.182658
0.179035
0.167203
-0.0704576
-0.0842626
-0.0882004
-0.0834645
-0.0725189
-0.0564125
-0.0361014
-0.0125646
0.0133081
0.0407098
0.0688724
0.0970175
0.124303
0.149764
0.17226
0.190474
0.203075
0.208695
0.204671
0.189994
-0.100397
-0.11758
-0.121781
-0.114964
-0.100677
-0.0804685
-0.0556169
-0.0273158
0.00343624
0.0358017
0.0690288
0.102373
0.135008
0.16593
0.193846
0.217128
0.233965
0.242281
0.238088
0.219534
-0.139254
-0.160893
-0.164864
-0.154654
-0.135556
-0.109846
-0.0792135
-0.0450892
-0.00855385
0.029581
0.068654
0.108039
0.147022
0.184643
0.21952
0.249698
0.272756
0.285563
0.281919
0.258191
-0.190659
-0.217843
-0.220274
-0.204403
-0.178268
-0.145141
-0.10718
-0.0660335
-0.0227917
0.0218581
0.067459
0.113633
0.159919
0.205567
0.249253
0.288783
0.321058
0.341472
0.340237
0.310094
-0.261138
-0.294087
-0.291803
-0.266336
-0.229799
-0.186644
-0.139454
-0.0899774
-0.0391636
0.012583
0.0651694
0.118637
0.172986
0.227927
0.282499
0.334562
0.380491
0.413871
0.419454
0.38298
-0.363063
-0.398455
-0.384196
-0.342392
-0.290455
-0.233825
-0.175189
-0.116087
-0.0570453
0.00205279
0.0616815
0.122505
0.185229
0.250379
0.317862
0.386263
0.452117
0.507407
0.529569
0.491828
-0.519716
-0.544059
-0.502431
-0.4332
-0.358768
-0.284405
-0.212048
-0.142348
-0.074912
-0.00877328
0.0573409
0.124912
0.195592
0.271112
0.352965
0.441659
0.535536
0.626591
0.684953
0.664389
-0.773623
-0.748145
-0.649532
-0.536154
-0.429893
-0.333176
-0.24544
-0.165106
-0.0900549
-0.0180461
0.0532008
0.12611
0.203433
0.288457
0.385095
0.497529
0.628672
0.774456
0.904271
0.949571
-1.21617
-1.03024
-0.816929
-0.637766
-0.490849
-0.369434
-0.267401
-0.178778
-0.0986911
-0.0233062
0.0506823
0.126557
0.208111
0.300337
0.410339
0.547998
0.72446
0.947993
1.21452
1.45165
-2.07995
-1.39795
-0.946518
-0.685709
-0.50542
-0.370143
-0.263965
-0.175184
-0.0962292
-0.022292
0.0502628
0.124902
0.205775
0.298896
0.414199
0.568184
0.784889
1.10634
1.64269
2.42225
-3.55259
-1.74696
-0.919946
-0.605157
-0.434203
-0.316764
-0.227135
-0.151264
-0.0818818
-0.0153394
0.0508187
0.118981
0.192214
0.275448
0.378177
0.519644
0.737883
1.13582
2.07296
3.98967
)
;

boundaryField
{
    movingWall
    {
        type            zeroGradient;
    }
    fixedWalls
    {
        type            zeroGradient;
    }
    frontAndBack
    {
        type            empty;
    }
}


// ************************************************************************* //
