/*--------------------------------*- C++ -*----------------------------------*\
  =========                 |
  \\      /  F ield         | OpenFOAM: The Open Source CFD Toolbox
   \\    /   O peration     | Website:  https://openfoam.org
    \\  /    A nd           | Version:  6
     \\/     M anipulation  |
\*---------------------------------------------------------------------------*/
FoamFile
{
    version     2.0;
    format      ascii;
    class       volVectorField;
    location    "0.01";
    object      U;
}
// * * * * * * * * * * * * * * * * * * * * * * * * * * * * * * * * * * * * * //

dimensions      [0 1 -1 0 0 0 0];

internalField   nonuniform List<vector> 
400
(
(-8.39465e-06 3.71896e-06 0)
(-0.000546203 0.000365117 0)
(-0.00191319 0.000605784 0)
(-0.00365786 0.000685742 0)
(-0.00544604 0.000665441 0)
(-0.00709487 0.000589635 0)
(-0.00850128 0.000483065 0)
(-0.00960379 0.000358643 0)
(-0.0103648 0.000223263 0)
(-0.0107612 8.12728e-05 0)
(-0.0107805 -6.37769e-05 0)
(-0.0104196 -0.000208362 0)
(-0.00968564 -0.000348526 0)
(-0.00859745 -0.000479149 0)
(-0.00719069 -0.000592241 0)
(-0.00552783 -0.000673561 0)
(-0.00371607 -0.000697087 0)
(-0.00194366 -0.000617404 0)
(-0.000555285 -0.000375174 0)
(-6.46076e-06 -7.09422e-06 0)
(-0.000363403 0.000532993 0)
(-0.00205844 0.00204548 0)
(-0.0052503 0.00299925 0)
(-0.00910044 0.00333 0)
(-0.0130045 0.00323413 0)
(-0.0166119 0.00287767 0)
(-0.0196996 0.00236528 0)
(-0.0221253 0.00175801 0)
(-0.0237995 0.00109198 0)
(-0.0246676 0.000391464 0)
(-0.0247014 -0.000323775 0)
(-0.0238955 -0.00103457 0)
(-0.0222687 -0.00171957 0)
(-0.019868 -0.00235137 0)
(-0.0167794 -0.00288936 0)
(-0.0131473 -0.00326708 0)
(-0.00920159 -0.00337456 0)
(-0.00530422 -0.00304253 0)
(-0.00207377 -0.00207612 0)
(-0.000362194 -0.000538829 0)
(-0.000620481 0.00190308 0)
(-0.00315468 0.00527511 0)
(-0.00761567 0.00727755 0)
(-0.0128402 0.00796577 0)
(-0.0180716 0.00771854 0)
(-0.0228836 0.00687185 0)
(-0.0269949 0.00565278 0)
(-0.0302211 0.00420173 0)
(-0.0324452 0.00260628 0)
(-0.0335963 0.000926967 0)
(-0.033638 -0.000786859 0)
(-0.0325636 -0.00248782 0)
(-0.0303979 -0.00412326 0)
(-0.0272026 -0.00562598 0)
(-0.0230901 -0.00689886 0)
(-0.0182471 -0.00778994 0)
(-0.0129636 -0.0080608 0)
(-0.00768136 -0.00736819 0)
(-0.00317514 -0.00533487 0)
(-0.000621498 -0.00191696 0)
(-0.000772588 0.00378343 0)
(-0.00388678 0.0094852 0)
(-0.00929081 0.0127046 0)
(-0.0155339 0.0137609 0)
(-0.021725 0.0132813 0)
(-0.027385 0.0118054 0)
(-0.0322014 0.00970307 0)
(-0.0359702 0.00720747 0)
(-0.0385642 0.00446686 0)
(-0.0399071 0.00158466 0)
(-0.0399592 -0.0013553 0)
(-0.0387128 -0.00427296 0)
(-0.0361925 -0.00707914 0)
(-0.0324632 -0.0096597 0)
(-0.0276461 -0.0118507 0)
(-0.021947 -0.0133997 0)
(-0.0156898 -0.013918 0)
(-0.00937296 -0.0128534 0)
(-0.00391164 -0.00958106 0)
(-0.000773927 -0.00380495 0)
(-0.000884674 0.0059851 0)
(-0.00448152 0.014403 0)
(-0.0107194 0.0189861 0)
(-0.0178789 0.020409 0)
(-0.0249268 0.0196177 0)
(-0.031329 0.0173946 0)
(-0.0367483 0.0142734 0)
(-0.0409725 0.0105905 0)
(-0.0438744 0.00655977 0)
(-0.0453799 0.00232902 0)
(-0.0454503 -0.00198396 0)
(-0.0440753 -0.00626747 0)
(-0.0412745 -0.010396 0)
(-0.0371062 -0.0142064 0)
(-0.0316888 -0.0174617 0)
(-0.0252359 -0.0197961 0)
(-0.0180982 -0.020647 0)
(-0.0108365 -0.0192118 0)
(-0.00451739 -0.0145475 0)
(-0.000886953 -0.00601749 0)
(-0.00100302 0.00848543 0)
(-0.00511689 0.0200217 0)
(-0.0122586 0.0261424 0)
(-0.0204163 0.0279382 0)
(-0.0283907 0.0267468 0)
(-0.0355811 0.0236446 0)
(-0.0416271 0.019358 0)
(-0.0463156 0.0143418 0)
(-0.0495288 0.00888019 0)
(-0.0512024 0.00316426 0)
(-0.0513021 -0.0026585 0)
(-0.0498142 -0.00845002 0)
(-0.0467471 -0.0140526 0)
(-0.0421432 -0.0192542 0)
(-0.0361064 -0.023738 0)
(-0.0288489 -0.027007 0)
(-0.020748 -0.0282903 0)
(-0.0124404 -0.0264795 0)
(-0.00517524 -0.0202389 0)
(-0.00100792 -0.00853493 0)
(-0.00115568 0.0113433 0)
(-0.00591504 0.0264711 0)
(-0.0141674 0.0343338 0)
(-0.0235361 0.036503 0)
(-0.0326141 0.0347948 0)
(-0.0407217 0.0306459 0)
(-0.0474786 0.0250161 0)
(-0.0526821 0.0184979 0)
(-0.0562366 0.011451 0)
(-0.0580979 0.00410579 0)
(-0.0582414 -0.00336952 0)
(-0.0566489 -0.010821 0)
(-0.05331 -0.0180677 0)
(-0.0482377 -0.0248519 0)
(-0.0415055 -0.0307697 0)
(-0.0333103 -0.0351684 0)
(-0.0240518 -0.0370212 0)
(-0.0144587 -0.0348394 0)
(-0.00601339 -0.0268032 0)
(-0.00116581 -0.0114228 0)
(-0.0013642 0.0146717 0)
(-0.00697624 0.0339854 0)
(-0.0166612 0.0438276 0)
(-0.027554 0.046344 0)
(-0.0379792 0.0439475 0)
(-0.0471686 0.0385257 0)
(-0.0547343 0.0313268 0)
(-0.0605052 0.0231052 0)
(-0.0644288 0.0143004 0)
(-0.0664969 0.00517285 0)
(-0.0667027 -0.004104 0)
(-0.0650229 -0.0133786 0)
(-0.0614177 -0.0224627 0)
(-0.0558516 -0.0310622 0)
(-0.0483415 -0.03868 0)
(-0.0390428 -0.0444773 0)
(-0.0283621 -0.0471059 0)
(-0.0171324 -0.0445916 0)
(-0.007143 -0.0345023 0)
(-0.00138404 -0.0148046 0)
(-0.00165425 0.0186367 0)
(-0.00841579 0.0429046 0)
(-0.0199776 0.0549944 0)
(-0.0327972 0.0577729 0)
(-0.0448515 0.0544244 0)
(-0.0552844 0.0474167 0)
(-0.0637306 0.0383585 0)
(-0.0700878 0.0281953 0)
(-0.0743806 0.0174457 0)
(-0.076661 0.0063836 0)
(-0.0769526 -0.00483832 0)
(-0.0752266 -0.0160999 0)
(-0.0714005 -0.0272331 0)
(-0.065362 -0.0379267 0)
(-0.0570309 -0.0475904 0)
(-0.046474 -0.055164 0)
(-0.034066 -0.0588897 0)
(-0.0207437 -0.0561554 0)
(-0.00870032 -0.0437204 0)
(-0.00169236 -0.0188636 0)
(-0.00206779 0.0234769 0)
(-0.0104048 0.0537008 0)
(-0.0244417 0.0683169 0)
(-0.0396783 0.0711576 0)
(-0.0536497 0.0664469 0)
(-0.0654377 0.0574169 0)
(-0.0747607 0.0461306 0)
(-0.0816484 0.0337536 0)
(-0.0862534 0.0208738 0)
(-0.0887223 0.00774837 0)
(-0.0891273 -0.00553087 0)
(-0.0874355 -0.0189194 0)
(-0.0835051 -0.0323136 0)
(-0.0771099 -0.0454212 0)
(-0.0680122 -0.0575727 0)
(-0.0561114 -0.0674536 0)
(-0.0416704 -0.0727823 0)
(-0.025694 -0.070086 0)
(-0.0108959 -0.0550028 0)
(-0.00214152 -0.0238704 0)
(-0.00268149 0.0295505 0)
(-0.013223 0.0670354 0)
(-0.0305334 0.0844095 0)
(-0.0487482 0.0868988 0)
(-0.0648676 0.0801881 0)
(-0.0779934 0.0685319 0)
(-0.088041 0.0545603 0)
(-0.09527 0.0396784 0)
(-0.100032 0.0245147 0)
(-0.102614 0.00925935 0)
(-0.10316 -0.00611549 0)
(-0.101637 -0.0217042 0)
(-0.0978282 -0.0375338 0)
(-0.0913485 -0.0533941 0)
(-0.0817218 -0.0685793 0)
(-0.068558 -0.0815042 0)
(-0.0518594 -0.0892289 0)
(-0.0325859 -0.0871014 0)
(-0.0140811 -0.0691317 0)
(-0.0028265 -0.030243 0)
(-0.00363817 0.0374239 0)
(-0.0173294 0.0838443 0)
(-0.0389436 0.104024 0)
(-0.0606883 0.105368 0)
(-0.0789913 0.0956777 0)
(-0.0931672 0.0805782 0)
(-0.103521 0.0633817 0)
(-0.110684 0.0457218 0)
(-0.115294 0.0282043 0)
(-0.11783 0.0108736 0)
(-0.118533 -0.00649783 0)
(-0.117378 -0.0242268 0)
(-0.114064 -0.042563 0)
(-0.108008 -0.0614799 0)
(-0.0983991 -0.0803283 0)
(-0.0843888 -0.097286 0)
(-0.0654662 -0.108627 0)
(-0.0422826 -0.108088 0)
(-0.018836 -0.0872362 0)
(-0.00392625 -0.0386621 0)
(-0.0051982 0.0480271 0)
(-0.0234425 0.105431 0)
(-0.0505509 0.127985 0)
(-0.0761206 0.12674 0)
(-0.0961565 0.112613 0)
(-0.110576 0.0930184 0)
(-0.120374 0.0720226 0)
(-0.126726 0.0514063 0)
(-0.13065 0.0316318 0)
(-0.132852 0.012485 0)
(-0.13369 -0.00656096 0)
(-0.133163 -0.026143 0)
(-0.130893 -0.0468485 0)
(-0.126085 -0.0689812 0)
(-0.117519 -0.0921218 0)
(-0.103685 -0.114351 0)
(-0.0831857 -0.131105 0)
(-0.0558405 -0.134001 0)
(-0.0260554 -0.110903 0)
(-0.00576599 -0.0502667 0)
(-0.00780927 0.0628894 0)
(-0.0325601 0.133474 0)
(-0.0661218 0.156905 0)
(-0.0949372 0.1506 0)
(-0.115209 0.129998 0)
(-0.128152 0.104694 0)
(-0.135845 0.0794296 0)
(-0.140176 0.0559178 0)
(-0.14258 0.0342755 0)
(-0.143986 0.0138826 0)
(-0.144859 -0.00619115 0)
(-0.145241 -0.0269948 0)
(-0.144723 -0.0495716 0)
(-0.142348 -0.0747413 0)
(-0.136492 -0.102591 0)
(-0.124841 -0.131429 0)
(-0.10465 -0.156037 0)
(-0.0740296 -0.165474 0)
(-0.036916 -0.142139 0)
(-0.00888989 -0.0669315 0)
(-0.0121473 0.0844055 0)
(-0.0456975 0.169683 0)
(-0.0852701 0.190398 0)
(-0.114576 0.175149 0)
(-0.131611 0.145551 0)
(-0.139927 0.113459 0)
(-0.143053 0.083874 0)
(-0.143613 0.0580125 0)
(-0.143353 0.035352 0)
(-0.143311 0.0147063 0)
(-0.143998 -0.00533181 0)
(-0.145507 -0.0262681 0)
(-0.14749 -0.0496782 0)
(-0.149004 -0.0770789 0)
(-0.14822 -0.109431 0)
(-0.142106 -0.14586 0)
(-0.126242 -0.181129 0)
(-0.0958602 -0.201799 0)
(-0.0523867 -0.182828 0)
(-0.0140573 -0.0915159 0)
(-0.0189131 0.116054 0)
(-0.0627283 0.214544 0)
(-0.103763 0.225288 0)
(-0.126403 0.195781 0)
(-0.133621 0.154881 0)
(-0.132376 0.115824 0)
(-0.127606 0.0828657 0)
(-0.122287 0.0560441 0)
(-0.118088 0.033857 0)
(-0.115866 0.0144474 0)
(-0.116022 -0.00404919 0)
(-0.118684 -0.0235276 0)
(-0.123708 -0.0460515 0)
(-0.130486 -0.0739108 0)
(-0.137501 -0.109294 0)
(-0.141605 -0.152969 0)
(-0.137021 -0.201026 0)
(-0.115197 -0.238875 0)
(-0.0714844 -0.23308 0)
(-0.0218377 -0.127968 0)
(-0.0276739 0.162732 0)
(-0.0789629 0.264131 0)
(-0.107746 0.251954 0)
(-0.109514 0.202841 0)
(-0.0969128 0.150629 0)
(-0.0800944 0.10691 0)
(-0.0641492 0.073436 0)
(-0.0512993 0.0482949 0)
(-0.0423451 0.028819 0)
(-0.0374842 0.0125722 0)
(-0.0367668 -0.0025596 0)
(-0.0403011 -0.0186078 0)
(-0.0482887 -0.0378604 0)
(-0.0608771 -0.0631811 0)
(-0.0777004 -0.098055 0)
(-0.0968541 -0.14565 0)
(-0.112971 -0.205465 0)
(-0.114682 -0.265591 0)
(-0.0869282 -0.287491 0)
(-0.0308811 -0.181288 0)
(-0.0319281 0.227819 0)
(-0.0761101 0.301975 0)
(-0.063041 0.249159 0)
(-0.0226055 0.180406 0)
(0.0198999 0.123408 0)
(0.0558236 0.0820074 0)
(0.0834264 0.0535492 0)
(0.103149 0.0340166 0)
(0.116048 0.0199646 0)
(0.123056 0.00886221 0)
(0.124681 -0.001196 0)
(0.120908 -0.0119202 0)
(0.111149 -0.0252932 0)
(0.0942246 -0.0440989 0)
(0.0685392 -0.072444 0)
(0.0328552 -0.115752 0)
(-0.0118006 -0.178812 0)
(-0.0570467 -0.259102 0)
(-0.0759238 -0.325538 0)
(-0.031908 -0.251836 0)
(0.00705776 0.278062 0)
(0.00861052 0.28103 0)
(0.104809 0.188772 0)
(0.202143 0.117704 0)
(0.272145 0.0719448 0)
(0.319801 0.0437077 0)
(0.351819 0.026634 0)
(0.372759 0.0161351 0)
(0.385746 0.00923724 0)
(0.392719 0.00413499 0)
(0.394615 -0.000331714 0)
(0.391531 -0.00510857 0)
(0.382699 -0.0113149 0)
(0.366246 -0.0207256 0)
(0.338819 -0.0364867 0)
(0.295173 -0.0640617 0)
(0.227386 -0.111966 0)
(0.128256 -0.190478 0)
(0.0256497 -0.293748 0)
(0.0178624 -0.294802 0)
(0.300783 0.146079 0)
(0.394646 0.125381 0)
(0.54503 0.0722452 0)
(0.649117 0.0390571 0)
(0.704798 0.0210036 0)
(0.735403 0.011362 0)
(0.753319 0.00626825 0)
(0.763995 0.00352512 0)
(0.770231 0.00192944 0)
(0.773479 0.000854791 0)
(0.774367 -3.9682e-05 0)
(0.772974 -0.000995818 0)
(0.768846 -0.00229831 0)
(0.760763 -0.00445334 0)
(0.746148 -0.00850957 0)
(0.719755 -0.0166642 0)
(0.669367 -0.0333475 0)
(0.569043 -0.0667482 0)
(0.414089 -0.123681 0)
(0.311217 -0.148759 0)
)
;

boundaryField
{
    movingWall
    {
        type            fixedValue;
        value           uniform (1 0 0);
    }
    fixedWalls
    {
        type            noSlip;
    }
    frontAndBack
    {
        type            empty;
    }
}


// ************************************************************************* //
