/*--------------------------------*- C++ -*----------------------------------*\
  =========                 |
  \\      /  F ield         | OpenFOAM: The Open Source CFD Toolbox
   \\    /   O peration     | Website:  https://openfoam.org
    \\  /    A nd           | Version:  6
     \\/     M anipulation  |
\*---------------------------------------------------------------------------*/
FoamFile
{
    version     2.0;
    format      ascii;
    class       volScalarField;
    location    "0.06";
    object      p;
}
// * * * * * * * * * * * * * * * * * * * * * * * * * * * * * * * * * * * * * //

dimensions      [0 2 -2 0 0 0 0];

internalField   nonuniform List<scalar> 
400
(
1.72569e-05
-0.0347924
-0.0781463
-0.111601
-0.124133
-0.110793
-0.0712097
-0.00830881
0.0727336
0.165281
0.261855
0.354669
0.436147
0.499488
0.539353
0.552716
0.539961
0.506177
0.462598
0.427791
0.0345244
-0.00124315
-0.0352712
-0.0583503
-0.065036
-0.051851
-0.018348
0.0333608
0.0993481
0.174449
0.252755
0.328083
0.394442
0.446532
0.480284
0.4935
0.486634
0.463271
0.429047
0.393319
0.0803864
0.030831
-0.00599742
-0.027299
-0.0327411
-0.0204163
0.0096408
0.0553804
0.113358
0.179148
0.247709
0.313756
0.372159
0.418343
0.448706
0.461094
0.455466
0.433836
0.396756
0.347233
0.122666
0.0540967
0.00828519
-0.0160158
-0.0226521
-0.0111057
0.0178693
0.0618458
0.117354
0.180186
0.245644
0.308824
0.364917
0.409524
0.438971
0.450679
0.443861
0.419146
0.372951
0.304324
0.151626
0.0629361
0.00635519
-0.0222334
-0.0302515
-0.0184165
0.0117217
0.0571602
0.114149
0.178424
0.245355
0.310128
0.36797
0.414366
0.445283
0.457495
0.449365
0.420274
0.363112
0.274163
0.160293
0.051038
-0.0167874
-0.0495387
-0.0579101
-0.043799
-0.00963224
0.0408557
0.103446
0.173623
0.24662
0.31752
0.381372
0.433329
0.468784
0.483665
0.475372
0.442071
0.373402
0.263526
0.142622
0.0121378
-0.0667571
-0.102482
-0.109079
-0.0897338
-0.047898
0.011799
0.0845182
0.165355
0.249289
0.331174
0.405751
0.467682
0.511598
0.532374
0.526249
0.490025
0.409973
0.278298
0.0921344
-0.0606394
-0.149834
-0.186199
-0.187655
-0.158997
-0.104955
-0.0312378
0.0565795
0.153146
0.25316
0.351228
0.441746
0.518801
0.576108
0.607246
0.606978
0.570356
0.479673
0.324886
0.000814832
-0.175703
-0.273657
-0.306894
-0.298291
-0.254855
-0.182969
-0.0896361
0.0187682
0.136484
0.258022
0.377853
0.490109
0.588321
0.665177
0.712685
0.723672
0.69075
0.591032
0.411401
-0.141962
-0.34393
-0.447801
-0.472034
-0.446319
-0.380826
-0.2841
-0.164655
-0.0296445
0.114936
0.263665
0.411154
0.551526
0.677912
0.781965
0.853838
0.883816
0.86099
0.755268
0.548827
-0.35088
-0.57989
-0.684419
-0.690439
-0.637457
-0.540192
-0.40997
-0.25696
-0.0889065
0.0883395
0.269899
0.451029
0.626324
0.788905
0.929558
1.03639
1.09642
1.09367
0.987601
0.752599
-0.647129
-0.903683
-0.999046
-0.972201
-0.877216
-0.735214
-0.560884
-0.365965
-0.158306
0.0570748
0.276607
0.496992
0.714087
0.921726
1.11035
1.26608
1.37202
1.40508
1.30921
1.04521
-1.06308
-1.34387
-1.41145
-1.32818
-1.16977
-0.965837
-0.73466
-0.488917
-0.235544
0.022401
0.283792
0.547918
0.813082
1.07504
1.325
1.54778
1.72231
1.81612
1.75026
1.46113
-1.65198
-1.94223
-1.94612
-1.76838
-1.51566
-1.22753
-0.924909
-0.619675
-0.315974
-0.0131858
0.291555
0.601625
0.919379
1.24434
1.57051
1.88335
2.15861
2.35291
2.3548
2.05681
-2.50792
-2.76062
-2.63058
-2.29739
-1.90715
-1.5076
-1.1185
-0.747162
-0.391793
-0.0456919
0.299888
0.654143
1.02543
1.41957
1.83677
2.26718
2.68743
3.04509
3.1877
2.93104
-3.80003
-3.88707
-3.48935
-2.90667
-2.32193
-1.78093
-1.29323
-0.854359
-0.451796
-0.0697915
0.30824
0.698954
1.1187
1.58266
2.10224
2.67991
3.30279
3.91969
4.34028
4.25901
-5.83246
-5.43571
-4.53244
-3.56807
-2.7203
-2.00973
-1.41903
-0.920091
-0.48306
-0.079996
0.315011
0.727069
1.182
1.7075
2.33286
3.08518
3.97938
4.98926
5.92969
6.35123
-9.28487
-7.55097
-5.69686
-4.18851
-3.01863
-2.12956
-1.45169
-0.916893
-0.470842
-0.0715398
0.315981
0.72446
1.18888
1.75125
2.46588
3.40102
4.62562
6.19288
8.10495
9.89567
-15.9314
-10.3233
-6.56605
-4.38392
-2.94828
-1.96849
-1.28693
-0.78524
-0.385456
-0.0364852
0.299959
0.658464
1.07736
1.60781
2.32802
3.35757
4.85666
7.11561
10.9622
16.6723
-27.0777
-12.99
-6.27685
-3.58849
-2.19642
-1.36866
-0.8485
-0.489851
-0.212791
0.0269846
0.259101
0.509294
0.807144
1.19676
1.75777
2.63773
4.10083
6.88632
13.7135
27.916
)
;

boundaryField
{
    movingWall
    {
        type            zeroGradient;
    }
    fixedWalls
    {
        type            zeroGradient;
    }
    frontAndBack
    {
        type            empty;
    }
}


// ************************************************************************* //
