/*--------------------------------*- C++ -*----------------------------------*\
  =========                 |
  \\      /  F ield         | OpenFOAM: The Open Source CFD Toolbox
   \\    /   O peration     | Website:  https://openfoam.org
    \\  /    A nd           | Version:  6
     \\/     M anipulation  |
\*---------------------------------------------------------------------------*/
FoamFile
{
    version     2.0;
    format      ascii;
    class       volVectorField;
    location    "0.185";
    object      U;
}
// * * * * * * * * * * * * * * * * * * * * * * * * * * * * * * * * * * * * * //

dimensions      [0 1 -1 0 0 0 0];

internalField   nonuniform List<vector> 
400
(
(6.69056e-05 -6.84918e-05 0)
(-0.000247092 0.000221366 0)
(-0.0013289 0.000469692 0)
(-0.00288082 0.000598768 0)
(-0.00462164 0.000638085 0)
(-0.00636641 0.000619367 0)
(-0.00799008 0.000562314 0)
(-0.0094005 0.000475726 0)
(-0.0105191 0.000361048 0)
(-0.0112695 0.000216825 0)
(-0.011576 4.28958e-05 0)
(-0.0113713 -0.000155972 0)
(-0.0106126 -0.000366997 0)
(-0.00930316 -0.000567332 0)
(-0.00751717 -0.000724106 0)
(-0.00541874 -0.000798043 0)
(-0.00326566 -0.000751435 0)
(-0.00139198 -0.000558717 0)
(-0.000174786 -0.000227276 0)
(0.000110511 0.00010273 0)
(-0.000226255 0.000241258 0)
(-0.00158329 0.00155044 0)
(-0.00444862 0.00259503 0)
(-0.00820331 0.00316179 0)
(-0.0123147 0.00333311 0)
(-0.016407 0.00321814 0)
(-0.0201937 0.00289608 0)
(-0.0234501 0.00240993 0)
(-0.0259871 0.00177582 0)
(-0.0276327 0.000999066 0)
(-0.0282298 9.0953e-05 0)
(-0.027651 -0.000915955 0)
(-0.0258289 -0.00195521 0)
(-0.0227966 -0.00291901 0)
(-0.0187316 -0.00366055 0)
(-0.0139882 -0.00401215 0)
(-0.00909427 -0.00382242 0)
(-0.00470035 -0.00300781 0)
(-0.00152474 -0.00163132 0)
(-0.000167292 -0.000141962 0)
(-0.000514677 0.00136953 0)
(-0.00283496 0.00447548 0)
(-0.00721449 0.00677276 0)
(-0.0126921 0.00801996 0)
(-0.0185603 0.00837127 0)
(-0.0243411 0.00803943 0)
(-0.0296574 0.00719238 0)
(-0.034205 0.00593126 0)
(-0.0377271 0.00430454 0)
(-0.0399927 0.00233916 0)
(-0.0407937 7.56653e-05 0)
(-0.0399635 -0.00239859 0)
(-0.0374141 -0.00492191 0)
(-0.0331881 -0.00724254 0)
(-0.0275172 -0.00902563 0)
(-0.0208661 -0.00989599 0)
(-0.0139283 -0.00952426 0)
(-0.00755891 -0.00774741 0)
(-0.00273931 -0.00471997 0)
(-0.000424401 -0.00118766 0)
(-0.000727893 0.00313476 0)
(-0.00383057 0.00864744 0)
(-0.00948334 0.0124626 0)
(-0.016384 0.0144751 0)
(-0.0236639 0.0149761 0)
(-0.0307766 0.0143127 0)
(-0.0372954 0.0127589 0)
(-0.0428748 0.0104838 0)
(-0.0472198 0.00757405 0)
(-0.0500597 0.00408199 0)
(-0.0511421 8.15423e-05 0)
(-0.0502526 -0.00427688 0)
(-0.0472572 -0.00871914 0)
(-0.0421675 -0.0128185 0)
(-0.0352197 -0.0160045 0)
(-0.0269438 -0.0176334 0)
(-0.0181765 -0.0171353 0)
(-0.00999161 -0.0142217 0)
(-0.00368153 -0.00911541 0)
(-0.000586789 -0.00281256 0)
(-0.000889769 0.00537361 0)
(-0.00464015 0.0138128 0)
(-0.0113923 0.0193649 0)
(-0.0195334 0.0221905 0)
(-0.0280436 0.0227988 0)
(-0.0363239 0.0217134 0)
(-0.0439224 0.0193324 0)
(-0.0504767 0.0158979 0)
(-0.0556724 0.0115307 0)
(-0.0592073 0.00629929 0)
(-0.0607789 0.00029926 0)
(-0.0601011 -0.00626579 0)
(-0.0569509 -0.0130096 0)
(-0.0512512 -0.0193108 0)
(-0.043183 -0.0243134 0)
(-0.0333022 -0.0270223 0)
(-0.0225973 -0.0265249 0)
(-0.0124363 -0.0223195 0)
(-0.00453927 -0.0146636 0)
(-0.000698958 -0.00485408 0)
(-0.00102873 0.00800599 0)
(-0.00536276 0.0198552 0)
(-0.0131325 0.0273699 0)
(-0.0224388 0.0310702 0)
(-0.0321202 0.0317643 0)
(-0.0415377 0.0302013 0)
(-0.0502325 0.0269261 0)
(-0.0578449 0.0222566 0)
(-0.064057 0.0163367 0)
(-0.0685408 0.00922942 0)
(-0.0709343 0.00102305 0)
(-0.0708483 -0.00805538 0)
(-0.0679149 -0.0175266 0)
(-0.0618877 -0.0265645 0)
(-0.0528027 -0.0339661 0)
(-0.0411748 -0.0382587 0)
(-0.0281467 -0.0380122 0)
(-0.0154923 -0.032352 0)
(-0.00557018 -0.0215268 0)
(-0.000814176 -0.00730302 0)
(-0.00116703 0.0110092 0)
(-0.00608553 0.026743 0)
(-0.0148794 0.0364545 0)
(-0.0253649 0.0411065 0)
(-0.0362446 0.0418883 0)
(-0.0468529 0.0398306 0)
(-0.0567441 0.0356511 0)
(-0.0655842 0.0297452 0)
(-0.0730714 0.0222632 0)
(-0.0788648 0.0132284 0)
(-0.0825395 0.00267381 0)
(-0.0835747 -0.00920666 0)
(-0.0813913 -0.0218907 0)
(-0.0754653 -0.0343619 0)
(-0.065547 -0.0450086 0)
(-0.0519777 -0.0517044 0)
(-0.0360041 -0.0522174 0)
(-0.0199299 -0.0450032 0)
(-0.00709672 -0.0301926 0)
(-0.000990656 -0.0102983 0)
(-0.00132134 0.0144035 0)
(-0.00687737 0.0345171 0)
(-0.0167725 0.0466675 0)
(-0.028513 0.0523534 0)
(-0.0406639 0.0532402 0)
(-0.0525501 0.0507041 0)
(-0.0637652 0.0456673 0)
(-0.0740307 0.0386063 0)
(-0.083093 0.0296566 0)
(-0.0906258 0.018758 0)
(-0.0961553 0.00581882 0)
(-0.0990146 -0.00909216 0)
(-0.098349 -0.0255084 0)
(-0.0932234 -0.0422906 0)
(-0.0828984 -0.0573859 0)
(-0.0673055 -0.0678007 0)
(-0.0476284 -0.070066 0)
(-0.0267754 -0.0614246 0)
(-0.00956715 -0.0415842 0)
(-0.00130963 -0.0141639 0)
(-0.00150535 0.0182429 0)
(-0.00779402 0.0432774 0)
(-0.0189185 0.0581109 0)
(-0.0320202 0.0649005 0)
(-0.0455176 0.0659053 0)
(-0.0587475 0.0629271 0)
(-0.0713758 0.0571319 0)
(-0.0832202 0.0490853 0)
(-0.0941204 0.0388885 0)
(-0.103813 0.0263475 0)
(-0.111818 0.0111572 0)
(-0.117337 -0.00687137 0)
(-0.1192 -0.0274946 0)
(-0.115927 -0.0496072 0)
(-0.106036 -0.0707648 0)
(-0.0886947 -0.0869009 0)
(-0.0646679 -0.0927154 0)
(-0.0373581 -0.0833088 0)
(-0.0136353 -0.0572175 0)
(-0.00190375 -0.019493 0)
(-0.00173482 0.022611 0)
(-0.00889227 0.0531707 0)
(-0.0214114 0.0709162 0)
(-0.0359789 0.0788339 0)
(-0.0508508 0.0799335 0)
(-0.0654026 0.0765421 0)
(-0.0794123 0.0701203 0)
(-0.0928396 0.0613383 0)
(-0.105674 0.0502505 0)
(-0.117782 0.0364816 0)
(-0.128752 0.0194137 0)
(-0.137719 -0.00156969 0)
(-0.143216 -0.0266908 0)
(-0.143141 -0.0551549 0)
(-0.135041 -0.0843231 0)
(-0.1169 -0.108962 0)
(-0.0884779 -0.12127 0)
(-0.0531689 -0.112807 0)
(-0.02023 -0.0793503 0)
(-0.00300158 -0.0272835 0)
(-0.002036 0.0276283 0)
(-0.0102535 0.0643901 0)
(-0.024364 0.085222 0)
(-0.0404658 0.0941924 0)
(-0.056632 0.0952741 0)
(-0.0723124 0.0914441 0)
(-0.087439 0.0845165 0)
(-0.102157 0.0752899 0)
(-0.116658 0.0637723 0)
(-0.131012 0.0493742 0)
(-0.144976 0.0310735 0)
(-0.157742 0.00764336 0)
(-0.167672 -0.0219 0)
(-0.172118 -0.0574656 0)
(-0.16759 -0.0966143 0)
(-0.150554 -0.133111 0)
(-0.119026 -0.156162 0)
(-0.0753144 -0.152073 0)
(-0.0305575 -0.110996 0)
(-0.00499911 -0.0391359 0)
(-0.00246047 0.0334797 0)
(-0.0120209 0.0771911 0)
(-0.0279518 0.101154 0)
(-0.0455727 0.110913 0)
(-0.0627609 0.111695 0)
(-0.079094 0.107271 0)
(-0.0946997 0.0998671 0)
(-0.109934 0.0904361 0)
(-0.125222 0.0789542 0)
(-0.140889 0.064614 0)
(-0.156965 0.0459365 0)
(-0.172881 0.0209402 0)
(-0.187095 -0.0123995 0)
(-0.196739 -0.0551372 0)
(-0.197569 -0.105618 0)
(-0.184531 -0.157183 0)
(-0.153249 -0.196151 0)
(-0.10336 -0.202148 0)
(-0.0458676 -0.155534 0)
(-0.00854527 -0.0575077 0)
(-0.0031137 0.0404736 0)
(-0.0144602 0.0919274 0)
(-0.0324692 0.118795 0)
(-0.0514254 0.128748 0)
(-0.0690406 0.128667 0)
(-0.0851187 0.123264 0)
(-0.100029 0.115209 0)
(-0.114342 0.105622 0)
(-0.128701 0.0944725 0)
(-0.143698 0.0807713 0)
(-0.15971 0.0626082 0)
(-0.17661 0.0372208 0)
(-0.193349 0.00139938 0)
(-0.207455 -0.0474099 0)
(-0.214673 -0.109016 0)
(-0.208999 -0.177398 0)
(-0.183506 -0.237132 0)
(-0.133587 -0.261082 0)
(-0.0665629 -0.215383 0)
(-0.0145108 -0.0858524 0)
(-0.0042126 0.0491651 0)
(-0.0180655 0.109103 0)
(-0.0383908 0.138109 0)
(-0.0581447 0.14712 0)
(-0.0750385 0.145198 0)
(-0.089306 0.138098 0)
(-0.101637 0.128905 0)
(-0.112807 0.118879 0)
(-0.123635 0.108002 0)
(-0.134931 0.095184 0)
(-0.147429 0.0782185 0)
(-0.161595 0.05373 0)
(-0.177283 0.0174485 0)
(-0.193181 -0.0347658 0)
(-0.206141 -0.104768 0)
(-0.210442 -0.188604 0)
(-0.197374 -0.271499 0)
(-0.157408 -0.321849 0)
(-0.090228 -0.289249 0)
(-0.0235003 -0.128122 0)
(-0.00620044 0.0606005 0)
(-0.0237344 0.129418 0)
(-0.0463893 0.158739 0)
(-0.0656047 0.164824 0)
(-0.0796183 0.159545 0)
(-0.0895196 0.149661 0)
(-0.096477 0.138519 0)
(-0.101501 0.127419 0)
(-0.10554 0.11635 0)
(-0.109546 0.10421 0)
(-0.114525 0.0887273 0)
(-0.121535 0.0662855 0)
(-0.131522 0.0320141 0)
(-0.144896 -0.0194703 0)
(-0.160721 -0.0922562 0)
(-0.175263 -0.185829 0)
(-0.179983 -0.28936 0)
(-0.161521 -0.371874 0)
(-0.10929 -0.36896 0)
(-0.0344969 -0.187212 0)
(-0.00994855 0.0768561 0)
(-0.0329844 0.153712 0)
(-0.0570372 0.179511 0)
(-0.0724697 0.179458 0)
(-0.0794895 0.168746 0)
(-0.0808486 0.154759 0)
(-0.0784603 0.140752 0)
(-0.0736472 0.127862 0)
(-0.0674758 0.115991 0)
(-0.0609382 0.10408 0)
(-0.0551464 0.0900117 0)
(-0.0515222 0.070392 0)
(-0.0518943 0.0404483 0)
(-0.0583584 -0.00563002 0)
(-0.0726656 -0.0736109 0)
(-0.0945875 -0.166962 0)
(-0.118652 -0.281956 0)
(-0.131003 -0.39557 0)
(-0.110867 -0.438612 0)
(-0.0427601 -0.262608 0)
(-0.016969 0.102409 0)
(-0.0477317 0.182334 0)
(-0.0687738 0.196848 0)
(-0.0725274 0.185883 0)
(-0.0647489 0.167453 0)
(-0.0509561 0.148413 0)
(-0.0339373 0.131222 0)
(-0.0152731 0.116464 0)
(0.00397688 0.103755 0)
(0.0229597 0.0920226 0)
(0.0407112 0.079435 0)
(0.0558158 0.0631779 0)
(0.0660933 0.0392575 0)
(0.0684252 0.00250273 0)
(0.0589197 -0.0531463 0)
(0.0339675 -0.134026 0)
(-0.00664432 -0.24474 0)
(-0.0538807 -0.377846 0)
(-0.0803784 -0.475433 0)
(-0.0383518 -0.345448 0)
(-0.0286394 0.14664 0)
(-0.0663342 0.210903 0)
(-0.0670435 0.198092 0)
(-0.0411459 0.171252 0)
(-0.00594743 0.145211 0)
(0.0311465 0.122717 0)
(0.0676746 0.104266 0)
(0.102599 0.0894719 0)
(0.135439 0.0774843 0)
(0.165908 0.0671702 0)
(0.193543 0.0570458 0)
(0.217315 0.0450769 0)
(0.235228 0.0284812 0)
(0.243946 0.00359493 0)
(0.238556 -0.0342777 0)
(0.212758 -0.0915475 0)
(0.160092 -0.178352 0)
(0.0791688 -0.306436 0)
(-0.0037751 -0.448205 0)
(-0.00538424 -0.404427 0)
(-0.0311736 0.215443 0)
(-0.0461705 0.215404 0)
(0.0235747 0.158113 0)
(0.103373 0.120267 0)
(0.173468 0.0942565 0)
(0.233697 0.0746925 0)
(0.28588 0.0599509 0)
(0.331259 0.0489647 0)
(0.370843 0.0406535 0)
(0.40543 0.0339963 0)
(0.435364 0.0279695 0)
(0.460246 0.0213929 0)
(0.478605 0.0127929 0)
(0.487516 0.000300548 0)
(0.482116 -0.0185026 0)
(0.455157 -0.0472756 0)
(0.39606 -0.094264 0)
(0.290536 -0.181916 0)
(0.148272 -0.322883 0)
(0.0893787 -0.367529 0)
(0.260782 0.132166 0)
(0.321305 0.117131 0)
(0.441755 0.0787163 0)
(0.541838 0.0538 0)
(0.611011 0.0381663 0)
(0.660825 0.0275522 0)
(0.699038 0.0201816 0)
(0.729288 0.0150871 0)
(0.753668 0.0115384 0)
(0.773568 0.00896508 0)
(0.789727 0.00690244 0)
(0.802165 0.00491867 0)
(0.81007 0.0025572 0)
(0.811644 -0.000699459 0)
(0.803756 -0.00546878 0)
(0.781494 -0.0126625 0)
(0.735888 -0.0244058 0)
(0.651194 -0.0474152 0)
(0.489917 -0.102929 0)
(0.357909 -0.149548 0)
)
;

boundaryField
{
    movingWall
    {
        type            fixedValue;
        value           uniform (1 0 0);
    }
    fixedWalls
    {
        type            noSlip;
    }
    frontAndBack
    {
        type            empty;
    }
}


// ************************************************************************* //
