/*--------------------------------*- C++ -*----------------------------------*\
  =========                 |
  \\      /  F ield         | OpenFOAM: The Open Source CFD Toolbox
   \\    /   O peration     | Website:  https://openfoam.org
    \\  /    A nd           | Version:  6
     \\/     M anipulation  |
\*---------------------------------------------------------------------------*/
FoamFile
{
    version     2.0;
    format      ascii;
    class       volScalarField;
    location    "0.165";
    object      p;
}
// * * * * * * * * * * * * * * * * * * * * * * * * * * * * * * * * * * * * * //

dimensions      [0 2 -2 0 0 0 0];

internalField   nonuniform List<scalar> 
400
(
9.7779e-06
-0.0231808
-0.05206
-0.0743151
-0.0826362
-0.0737498
-0.0474108
-0.00555308
0.0484004
0.110052
0.174433
0.236352
0.290741
0.33304
0.35966
0.368569
0.360025
0.33744
0.308338
0.285155
0.0229952
-0.000835045
-0.0234976
-0.0388413
-0.0432712
-0.0344886
-0.0121961
0.0222129
0.0661432
0.116174
0.16838
0.218638
0.262941
0.297731
0.320272
0.329085
0.324474
0.308847
0.28599
0.2622
0.0535427
0.0205213
-0.00400012
-0.0181515
-0.0217516
-0.0135485
0.00643646
0.0368542
0.0754341
0.119251
0.164957
0.20903
0.248036
0.278897
0.299188
0.307454
0.303668
0.28919
0.264417
0.231427
0.0816287
0.0359478
0.00545711
-0.0106799
-0.0150772
-0.0074099
0.0118256
0.0410364
0.077943
0.119771
0.163409
0.205585
0.243076
0.272917
0.292624
0.300454
0.295876
0.279324
0.24845
0.202712
0.100737
0.0416797
0.00403934
-0.0149424
-0.0202723
-0.0124485
0.00751102
0.0376419
0.0754907
0.118256
0.162873
0.206137
0.244837
0.275925
0.296665
0.304866
0.299424
0.27994
0.241718
0.182401
0.106191
0.0334867
-0.0116099
-0.0333597
-0.0389565
-0.0296804
-0.00711965
0.0262918
0.0678058
0.114466
0.163126
0.21051
0.253285
0.288166
0.312015
0.322062
0.316543
0.294243
0.248302
0.174978
0.0939331
0.00717333
-0.0452544
-0.0689955
-0.0734742
-0.0608174
-0.0332751
0.00614756
0.0543124
0.108022
0.16397
0.218729
0.268751
0.310408
0.340031
0.354119
0.350112
0.325872
0.272286
0.184337
0.059633
-0.0418478
-0.10109
-0.125298
-0.126466
-0.107773
-0.0722893
-0.023705
0.034381
0.0984953
0.165157
0.230775
0.291561
0.343485
0.382233
0.403407
0.403426
0.378961
0.31823
0.214738
-0.00203578
-0.119163
-0.184201
-0.206416
-0.201073
-0.172789
-0.125691
-0.064288
0.00732419
0.085426
0.166426
0.246644
0.322108
0.38839
0.440458
0.472814
0.480543
0.458643
0.391841
0.271601
-0.0980968
-0.231968
-0.300933
-0.317321
-0.300874
-0.258262
-0.194994
-0.116531
-0.0274443
0.0684186
0.167528
0.2663
0.360748
0.446152
0.516747
0.565739
0.58645
0.571471
0.500654
0.362311
-0.238214
-0.389866
-0.459315
-0.463857
-0.42968
-0.366406
-0.281323
-0.180929
-0.0701446
0.047308
0.168276
0.289613
0.407638
0.517601
0.613116
0.685955
0.72718
0.725913
0.654925
0.497281
-0.436297
-0.606083
-0.669573
-0.652671
-0.591118
-0.498698
-0.384852
-0.257057
-0.120262
0.022392
0.168637
0.316294
0.462523
0.603036
0.731177
0.837328
0.909829
0.932947
0.868953
0.691727
-0.713579
-0.899396
-0.944697
-0.890863
-0.787851
-0.654981
-0.503985
-0.342911
-0.176068
-0.00527964
0.168822
0.34579
0.524421
0.701706
0.87148
1.0232
1.14232
1.20671
1.16313
0.968977
-1.10503
-1.29728
-1.30074
-1.18487
-1.02002
-0.831983
-0.63416
-0.434037
-0.234062
-0.0336123
0.169336
0.377064
0.591087
0.810927
1.0323
1.24505
1.43243
1.56486
1.5672
1.36721
-1.67261
-1.84051
-1.7557
-1.53745
-1.28214
-1.02083
-0.766126
-0.522482
-0.288415
-0.0592843
0.17084
0.408122
0.658104
0.924546
1.20734
1.4995
1.78483
2.02754
2.12494
1.95306
-2.52803
-2.58722
-2.32553
-1.94252
-1.55887
-1.20423
-0.884441
-0.596185
-0.330899
-0.0779568
0.17377
0.435418
0.717885
1.03122
1.38288
1.77418
2.19596
2.6132
2.89778
2.84434
-3.873
-3.61304
-3.01649
-2.38085
-1.82324
-1.35641
-0.968437
-0.640393
-0.352257
-0.085329
0.17771
0.453631
0.759663
1.11426
1.53689
2.04545
2.64948
3.33064
3.96436
4.24909
-6.1594
-5.01373
-3.78643
-2.79027
-2.01927
-1.43416
-0.988414
-0.636623
-0.342537
-0.0781295
0.179938
0.45352
0.765973
1.14533
1.62784
2.25901
3.0847
4.13979
5.42507
6.62751
-10.5695
-6.84899
-4.35763
-2.91496
-1.96811
-1.32304
-0.875101
-0.545543
-0.282402
-0.0515919
0.172439
0.412781
0.695028
1.05335
1.53993
2.23475
3.24505
4.76456
7.34526
11.1677
-17.9825
-8.61119
-4.15441
-2.37804
-1.46163
-0.918355
-0.578355
-0.344493
-0.163417
-0.00552764
0.148971
0.317276
0.519135
0.783959
1.1648
1.76026
2.7477
4.62118
9.19197
18.678
)
;

boundaryField
{
    movingWall
    {
        type            zeroGradient;
    }
    fixedWalls
    {
        type            zeroGradient;
    }
    frontAndBack
    {
        type            empty;
    }
}


// ************************************************************************* //
