/*--------------------------------*- C++ -*----------------------------------*\
  =========                 |
  \\      /  F ield         | OpenFOAM: The Open Source CFD Toolbox
   \\    /   O peration     | Website:  https://openfoam.org
    \\  /    A nd           | Version:  6
     \\/     M anipulation  |
\*---------------------------------------------------------------------------*/
FoamFile
{
    version     2.0;
    format      ascii;
    class       surfaceScalarField;
    location    "0.07";
    object      phi;
}
// * * * * * * * * * * * * * * * * * * * * * * * * * * * * * * * * * * * * * //

dimensions      [0 3 -1 0 0 0 0];

internalField   nonuniform List<scalar> 
760
(
1.47365e-08
-1.47627e-08
-2.09025e-08
3.5639e-08
-1.12827e-07
9.19248e-08
-2.44793e-07
1.31966e-07
-3.96728e-07
1.51936e-07
-5.49334e-07
1.52605e-07
-6.85918e-07
1.36585e-07
-7.93235e-07
1.07317e-07
-8.61736e-07
6.85015e-08
-8.85607e-07
2.38706e-08
-8.62768e-07
-2.28391e-08
-7.94923e-07
-6.78454e-08
-6.8765e-07
-1.07273e-07
-5.50495e-07
-1.37156e-07
-3.96948e-07
-1.53546e-07
-2.44113e-07
-1.52835e-07
-1.11695e-07
-1.32418e-07
-1.99507e-08
-9.17446e-08
1.51065e-08
-3.50576e-08
1.51062e-08
-3.30343e-08
1.82717e-08
-1.77825e-07
1.8043e-07
-4.31255e-07
3.45355e-07
-7.63151e-07
4.63861e-07
-1.13343e-06
5.22216e-07
-1.50093e-06
5.20101e-07
-1.82839e-06
4.64047e-07
-2.08526e-06
3.64193e-07
-2.24905e-06
2.32291e-07
-2.30592e-06
8.07371e-08
-2.25097e-06
-7.77908e-08
-2.08841e-06
-2.30406e-07
-1.83164e-06
-3.64042e-07
-1.50315e-06
-4.65648e-07
-1.13392e-06
-5.22775e-07
-7.61938e-07
-5.24815e-07
-4.29117e-07
-4.65239e-07
-1.75907e-07
-3.44954e-07
-3.2175e-08
-1.78789e-07
-1.70691e-08
-9.05946e-08
1.08866e-07
-3.53636e-07
4.43471e-07
-7.61315e-07
7.53034e-07
-1.26749e-06
9.70039e-07
-1.81716e-06
1.07188e-06
-2.35468e-06
1.05763e-06
-2.82964e-06
9.39004e-07
-3.2004e-06
7.34953e-07
-3.43615e-06
4.68043e-07
-3.51789e-06
1.62477e-07
-3.4389e-06
-1.56779e-07
-3.205e-06
-4.64311e-07
-2.83458e-06
-7.34457e-07
-2.3584e-06
-9.41831e-07
-1.81859e-06
-1.06259e-06
-1.26651e-06
-1.07689e-06
-7.58821e-07
-9.72932e-07
-3.51136e-07
-7.52639e-07
-8.93727e-08
-4.40552e-07
-1.06442e-07
-1.43176e-07
2.52042e-07
-5.21921e-07
8.22217e-07
-1.07929e-06
1.3104e-06
-1.74899e-06
1.63973e-06
-2.46072e-06
1.78361e-06
-3.14677e-06
1.74368e-06
-3.74713e-06
1.53937e-06
-4.21288e-06
1.2007e-06
-4.50804e-06
7.63205e-07
-4.6105e-06
2.64933e-07
-4.51239e-06
-2.54886e-07
-4.22036e-06
-7.56339e-07
-3.75569e-06
-1.19913e-06
-3.15412e-06
-1.54339e-06
-2.46514e-06
-1.75157e-06
-1.7499e-06
-1.79212e-06
-1.07753e-06
-1.64531e-06
-5.19352e-07
-1.31082e-06
-1.41706e-07
-8.18198e-07
-2.48147e-07
-1.91547e-07
4.43589e-07
-6.82708e-07
1.31338e-06
-1.38703e-06
2.01473e-06
-2.2154e-06
2.4681e-06
-3.08092e-06
2.64913e-06
-3.9043e-06
2.56706e-06
-4.61783e-06
2.25289e-06
-5.16769e-06
1.75056e-06
-5.51501e-06
1.11052e-06
-5.63606e-06
3.8599e-07
-5.52235e-06
-3.686e-07
-5.18067e-06
-1.09802e-06
-4.63346e-06
-1.74634e-06
-3.91914e-06
-2.25772e-06
-3.09202e-06
-2.57869e-06
-2.22125e-06
-2.6629e-06
-1.38806e-06
-2.47849e-06
-6.81098e-07
-2.01778e-06
-1.90093e-07
-1.3092e-06
-4.38239e-07
-2.38591e-07
6.82179e-07
-8.418e-07
1.91659e-06
-1.6931e-06
2.86603e-06
-2.67844e-06
3.45344e-06
-3.69308e-06
3.66377e-06
-4.64633e-06
3.52032e-06
-5.46422e-06
3.07078e-06
-6.09011e-06
2.37645e-06
-6.48419e-06
1.5046e-06
-6.62256e-06
5.24355e-07
-6.49645e-06
-4.94701e-07
-6.1122e-06
-1.48227e-06
-5.49182e-06
-2.36673e-06
-4.67417e-06
-3.07536e-06
-3.71628e-06
-3.53658e-06
-2.69384e-06
-3.68534e-06
-1.70019e-06
-3.47214e-06
-8.429e-07
-2.87508e-06
-2.37659e-07
-1.91444e-06
-6.75898e-07
-2.87277e-07
9.69456e-07
-1.00599e-06
2.6353e-06
-2.00687e-06
3.86691e-06
-3.14848e-06
4.59505e-06
-4.30715e-06
4.82244e-06
-5.38155e-06
4.59472e-06
-6.29341e-06
3.98264e-06
-6.98579e-06
3.06883e-06
-7.42032e-06
1.93913e-06
-7.57447e-06
6.78507e-07
-7.43977e-06
-6.29402e-07
-7.02134e-06
-1.9007e-06
-6.33893e-06
-3.04914e-06
-5.42932e-06
-3.98497e-06
-4.3495e-06
-4.61641e-06
-3.17964e-06
-4.85519e-06
-2.02463e-06
-4.62715e-06
-1.01238e-06
-3.88733e-06
-2.87673e-07
-2.63915e-06
-9.63571e-07
-3.4039e-07
1.30985e-06
-1.18168e-06
3.47659e-06
-2.3362e-06
5.02142e-06
-3.63161e-06
5.89046e-06
-4.92475e-06
6.11559e-06
-6.10552e-06
5.77548e-06
-7.09465e-06
4.97177e-06
-7.83861e-06
3.8128e-06
-8.30367e-06
2.40419e-06
-8.47082e-06
8.45665e-07
-8.33259e-06
-7.67635e-07
-7.89205e-06
-2.34125e-06
-7.1644e-06
-3.77679e-06
-6.18086e-06
-4.96851e-06
-4.99437e-06
-5.80289e-06
-3.68608e-06
-6.16348e-06
-2.37048e-06
-5.94274e-06
-1.19682e-06
-5.06099e-06
-3.43253e-07
-3.49272e-06
-1.30682e-06
-4.00683e-07
1.71053e-06
-1.3747e-06
4.4506e-06
-2.68635e-06
6.33308e-06
-4.12765e-06
7.33176e-06
-5.53629e-06
7.52423e-06
-6.79721e-06
7.03641e-06
-7.83563e-06
6.01019e-06
-8.60688e-06
4.58405e-06
-9.08631e-06
2.88362e-06
-9.26134e-06
1.02069e-06
-9.12647e-06
-9.02505e-07
-8.6818e-06
-2.78591e-06
-7.93507e-06
-4.52352e-06
-6.90723e-06
-5.99635e-06
-5.64135e-06
-7.06878e-06
-4.21356e-06
-7.59127e-06
-2.74391e-06
-7.4124e-06
-1.40281e-06
-6.40209e-06
-4.07495e-07
-4.48804e-06
-1.71432e-06
-4.7144e-07
2.18197e-06
-1.59085e-06
5.57001e-06
-3.05957e-06
7.8018e-06
-4.62811e-06
8.90031e-06
-6.11739e-06
9.01351e-06
-7.41443e-06
8.33344e-06
-8.45734e-06
7.05311e-06
-9.218e-06
5.3447e-06
-9.68669e-06
3.35231e-06
-9.86089e-06
1.19488e-06
-9.73848e-06
-1.02491e-06
-9.3156e-06
-3.20879e-06
-8.58905e-06
-5.25007e-06
-7.56358e-06
-7.02182e-06
-6.26417e-06
-8.36819e-06
-4.75281e-06
-9.10263e-06
-3.14728e-06
-9.01792e-06
-1.63669e-06
-7.91268e-06
-4.84011e-07
-5.64071e-06
-2.19833e-06
-5.57512e-07
2.73948e-06
-1.837e-06
6.84949e-06
-3.45444e-06
9.41924e-06
-5.11306e-06
1.05589e-05
-6.62355e-06
1.0524e-05
-7.88704e-06
9.59693e-06
-8.86681e-06
8.03289e-06
-9.56128e-06
6.03917e-06
-9.98268e-06
3.77371e-06
-1.01427e-05
1.35486e-06
-1.00441e-05
-1.12348e-06
-9.67835e-06
-3.57454e-06
-9.02775e-06
-5.90067e-06
-8.07398e-06
-7.97559e-06
-6.81348e-06
-9.62869e-06
-5.28071e-06
-1.06354e-05
-3.57787e-06
-1.07208e-05
-1.90525e-06
-9.58529e-06
-5.77899e-07
-6.96807e-06
-2.77623e-06
-6.67031e-07
3.40651e-06
-2.1222e-06
8.30467e-06
-3.86365e-06
1.11607e-05
-5.54481e-06
1.22401e-05
-6.98106e-06
1.19603e-05
-8.10693e-06
1.07228e-05
-8.92755e-06
8.85351e-06
-9.47955e-06
6.59117e-06
-9.80419e-06
4.09835e-06
-9.93108e-06
1.48175e-06
-9.86965e-06
-1.18491e-06
-9.60616e-06
-3.83802e-06
-9.10575e-06
-6.40107e-06
-8.32054e-06
-8.7608e-06
-7.20654e-06
-1.07427e-05
-5.75282e-06
-1.20891e-05
-4.02462e-06
-1.2449e-05
-2.21646e-06
-1.13935e-05
-6.97369e-07
-8.48716e-06
-3.4736e-06
-8.14189e-07
4.2207e-06
-2.4579e-06
9.94838e-06
-4.26728e-06
1.29701e-05
-5.85509e-06
1.38279e-05
-7.07132e-06
1.31765e-05
-7.91294e-06
1.15644e-05
-8.44714e-06
9.3877e-06
-8.75991e-06
6.90395e-06
-8.92646e-06
4.2649e-06
-8.99617e-06
1.55146e-06
-8.9859e-06
-1.19518e-06
-8.87752e-06
-3.94641e-06
-8.61861e-06
-6.65998e-06
-8.12803e-06
-9.25139e-06
-7.31068e-06
-1.156e-05
-6.08918e-06
-1.33106e-05
-4.46014e-06
-1.4078e-05
-2.57875e-06
-1.32748e-05
-8.56341e-07
-1.02096e-05
-4.32994e-06
-1.02312e-06
5.24383e-06
-2.85356e-06
1.17788e-05
-4.61512e-06
1.47316e-05
-5.91884e-06
1.51316e-05
-6.70377e-06
1.39614e-05
-7.06856e-06
1.19292e-05
-7.16216e-06
9.4813e-06
-7.12563e-06
6.86741e-06
-7.06688e-06
4.20615e-06
-7.0525e-06
1.53709e-06
-7.10601e-06
-1.14167e-06
-7.20704e-06
-3.84538e-06
-7.2899e-06
-6.57711e-06
-7.24321e-06
-9.29808e-06
-6.91674e-06
-1.18865e-05
-6.14726e-06
-1.40801e-05
-4.82146e-06
-1.54038e-05
-2.9955e-06
-1.51008e-05
-1.07797e-06
-1.21271e-05
-5.4079e-06
-1.33011e-06
6.57394e-06
-3.29659e-06
1.37453e-05
-4.78306e-06
1.62181e-05
-5.50259e-06
1.58511e-05
-5.57109e-06
1.40299e-05
-5.23127e-06
1.15894e-05
-4.72254e-06
8.97257e-06
-4.23271e-06
6.37758e-06
-3.88966e-06
3.8631e-06
-3.7673e-06
1.41473e-06
-3.89227e-06
-1.0167e-06
-4.24602e-06
-3.49163e-06
-4.76054e-06
-6.06259e-06
-5.30916e-06
-8.74946e-06
-5.69784e-06
-1.14978e-05
-5.67166e-06
-1.41063e-05
-4.96517e-06
-1.61103e-05
-3.44271e-06
-1.66233e-05
-1.39581e-06
-1.4174e-05
-6.80371e-06
-1.7684e-06
8.34234e-06
-3.68316e-06
1.56601e-05
-4.47196e-06
1.70069e-05
-4.16915e-06
1.55483e-05
-3.18131e-06
1.30421e-05
-1.91641e-06
1.03245e-05
-6.81936e-07
7.7381e-06
3.2125e-07
5.37439e-06
9.74465e-07
3.20989e-06
1.2153e-06
1.1739e-06
1.02084e-06
-8.22249e-07
4.02358e-07
-2.87314e-06
-5.88232e-07
-5.072e-06
-1.83954e-06
-7.49815e-06
-3.15133e-06
-1.0186e-05
-4.20522e-06
-1.30524e-05
-4.56768e-06
-1.57478e-05
-3.79693e-06
-1.7394e-05
-1.83612e-06
-1.61348e-05
-8.63983e-06
-2.28917e-06
1.06315e-05
-3.62336e-06
1.69943e-05
-2.99338e-06
1.63769e-05
-1.11767e-06
1.36726e-05
1.22973e-06
1.06947e-05
3.53091e-06
8.0233e-06
5.49141e-06
5.77759e-06
6.96439e-06
3.90141e-06
7.88492e-06
2.28935e-06
8.22687e-06
8.31939e-07
7.9801e-06
-5.75474e-07
7.14318e-06
-2.03623e-06
5.7301e-06
-3.65892e-06
3.7934e-06
-5.56145e-06
1.47002e-06
-7.86266e-06
-9.46688e-07
-1.06357e-05
-2.92193e-06
-1.37726e-05
-3.64126e-06
-1.66747e-05
-2.33412e-06
-1.7442e-05
-1.09739e-05
-2.50735e-06
1.31389e-05
-1.96172e-06
1.64486e-05
1.14408e-06
1.32711e-05
5.05125e-06
9.76544e-06
8.78052e-06
6.96543e-06
1.19253e-05
4.87851e-06
1.43604e-05
3.34255e-06
1.60807e-05
2.18106e-06
1.71182e-05
1.2519e-06
1.75015e-05
4.4857e-07
1.72399e-05
-3.13823e-07
1.63174e-05
-1.11376e-06
1.46965e-05
-2.03803e-06
1.23328e-05
-3.19773e-06
9.21467e-06
-4.74451e-06
5.451e-06
-6.87201e-06
1.44374e-06
-9.76534e-06
-1.80508e-06
-1.34259e-05
-2.47781e-06
-1.67692e-05
-1.34518e-05
-6.05361e-07
1.37442e-05
4.5794e-06
1.12639e-05
1.09956e-05
6.85487e-06
1.65659e-05
4.19517e-06
2.08997e-05
2.63161e-06
2.40998e-05
1.67841e-06
2.63664e-05
1.07602e-06
2.78762e-05
6.71238e-07
2.87543e-05
3.73812e-07
2.9073e-05
1.29811e-07
2.88563e-05
-9.71045e-08
2.80807e-05
-3.38137e-07
2.66723e-05
-6.29628e-07
2.45004e-05
-1.02588e-06
2.13751e-05
-1.6192e-06
1.70735e-05
-2.57041e-06
1.1466e-05
-4.15787e-06
4.92926e-06
-6.88907e-06
-4.42508e-07
-1.13975e-05
-1.38943e-05
1.37442e-05
2.50081e-05
3.1863e-05
3.60581e-05
3.86897e-05
4.03681e-05
4.14442e-05
4.21154e-05
4.24892e-05
4.2619e-05
4.25219e-05
4.21838e-05
4.15542e-05
4.05283e-05
3.89091e-05
3.63387e-05
3.21808e-05
2.52917e-05
1.38943e-05
)
;

boundaryField
{
    movingWall
    {
        type            calculated;
        value           uniform 0;
    }
    fixedWalls
    {
        type            calculated;
        value           uniform 0;
    }
    frontAndBack
    {
        type            empty;
        value           nonuniform 0();
    }
}


// ************************************************************************* //
