/*--------------------------------*- C++ -*----------------------------------*\
  =========                 |
  \\      /  F ield         | OpenFOAM: The Open Source CFD Toolbox
   \\    /   O peration     | Website:  https://openfoam.org
    \\  /    A nd           | Version:  6
     \\/     M anipulation  |
\*---------------------------------------------------------------------------*/
FoamFile
{
    version     2.0;
    format      ascii;
    class       volScalarField;
    location    "0.085";
    object      p;
}
// * * * * * * * * * * * * * * * * * * * * * * * * * * * * * * * * * * * * * //

dimensions      [0 2 -2 0 0 0 0];

internalField   nonuniform List<scalar> 
400
(
-1.04703e-08
-0.00438304
-0.00976023
-0.0137902
-0.0151689
-0.0133301
-0.00823641
-0.000223642
0.0101125
0.0219903
0.0344963
0.0466377
0.0574063
0.065864
0.0712542
0.0731397
0.071564
0.0672176
0.0616066
0.057209
0.00434094
-0.000172972
-0.00438244
-0.00712433
-0.00778534
-0.00596961
-0.00162473
0.00501063
0.0134865
0.0231937
0.0334074
0.0433343
0.0521709
0.0591782
0.0637721
0.0656284
0.0648011
0.0617849
0.0573698
0.0528642
0.0100414
0.00377246
-0.000785036
-0.00329595
-0.00380302
-0.00210682
0.00178935
0.00766023
0.0151214
0.0236598
0.0326604
0.0414416
0.0493044
0.0555956
0.0597829
0.0615407
0.0608561
0.0580251
0.053203
0.0469207
0.0151128
0.00644269
0.000770525
-0.00210254
-0.00276754
-0.00120231
0.00250861
0.00810785
0.0152242
0.0233853
0.0320262
0.0405113
0.048172
0.0543594
0.058509
0.0602211
0.0593755
0.0560934
0.0500231
0.0412422
0.0182776
0.00707862
7.20069e-05
-0.00333398
-0.0042061
-0.0026771
0.00108528
0.00677621
0.0140152
0.0223434
0.0312157
0.0400069
0.0480377
0.0546175
0.0591014
0.0609714
0.0599749
0.0560687
0.0484657
0.0369523
0.0185829
0.00481483
-0.00358594
-0.00753217
-0.00852755
-0.00684617
-0.00273862
0.00343508
0.0112722
0.0203115
0.0300074
0.0397216
0.0487343
0.0562766
0.0615811
0.0639683
0.0630198
0.0585178
0.0492601
0.0348252
0.0151804
-0.00121314
-0.0109912
-0.0153706
-0.0162944
-0.0141806
-0.00936653
-0.00227316
0.00666868
0.0169885
0.0281322
0.0394356
0.0501197
0.0593086
0.0660711
0.0695159
0.0690074
0.0641105
0.0531645
0.0355541
0.0071778
-0.0119325
-0.0230055
-0.0275952
-0.0281342
-0.0252076
-0.0192525
-0.0107552
-0.000173706
0.0120173
0.0252607
0.03887
0.052002
0.0636554
0.0726974
0.0779637
0.0785254
0.0736437
0.0610757
0.0399555
-0.00647585
-0.0284308
-0.0406363
-0.0450717
-0.0447659
-0.0405218
-0.032899
-0.0224547
-0.00966506
0.00500919
0.0210311
0.0377138
0.0541653
0.0692566
0.0816219
0.0897549
0.0923271
0.0881527
0.0741816
0.0491541
-0.0270917
-0.0520481
-0.0650895
-0.0687916
-0.066968
-0.060726
-0.0507835
-0.0377731
-0.0221699
-0.00438646
0.0151042
0.0356624
0.0563894
0.0760528
0.0930418
0.105438
0.111379
0.109016
0.094127
0.0647796
-0.0563804
-0.0845005
-0.0978248
-0.0998541
-0.095505
-0.0863221
-0.0732293
-0.0569334
-0.0378746
-0.0163615
0.00726619
0.0324943
0.0584974
0.0840064
0.107192
0.125675
0.136906
0.138078
0.12323
0.0892352
-0.0967077
-0.128079
-0.140627
-0.139419
-0.131
-0.117539
-0.100213
-0.0797846
-0.0565976
-0.0307734
-0.00241781
0.028196
0.060444
0.0931483
0.124357
0.151245
0.170441
0.177804
0.164792
0.126126
-0.151623
-0.185989
-0.195685
-0.188599
-0.173724
-0.154078
-0.131104
-0.10555
-0.0775574
-0.0469347
-0.0134182
0.0231157
0.0624266
0.103637
0.144882
0.183028
0.213841
0.231454
0.223568
0.181026
-0.227019
-0.262932
-0.265629
-0.248201
-0.223235
-0.194745
-0.164333
-0.132551
-0.0991435
-0.0634262
-0.0245895
0.018078
0.0649543
0.115763
0.169094
0.221865
0.269189
0.303219
0.306484
0.262978
-0.333616
-0.366013
-0.353315
-0.318121
-0.277737
-0.236921
-0.197011
-0.157963
-0.118787
-0.0780466
-0.0341756
0.0143349
0.0687457
0.129764
0.196987
0.268112
0.338304
0.398059
0.423604
0.387387
-0.491519
-0.505675
-0.461071
-0.396331
-0.333249
-0.276033
-0.224709
-0.177832
-0.133135
-0.0880859
-0.0401361
0.0132123
0.0743502
0.145385
0.227664
0.320866
0.421791
0.520857
0.588702
0.580447
-0.738618
-0.696017
-0.589356
-0.478152
-0.383408
-0.305775
-0.241999
-0.187821
-0.138885
-0.0911679
-0.0409539
0.0153582
0.0814586
0.161244
0.258708
0.377277
0.518007
0.674768
0.819005
0.886487
-1.16227
-0.954933
-0.729428
-0.550936
-0.416628
-0.316989
-0.242422
-0.183791
-0.133696
-0.0863563
-0.0369082
0.0192461
0.0870388
0.17236
0.282747
0.427615
0.616094
0.85346
1.13737
1.40144
-1.99693
-1.29256
-0.825606
-0.56405
-0.397547
-0.287048
-0.212487
-0.158483
-0.114581
-0.0738078
-0.0308635
0.0191032
0.0814873
0.16344
0.275787
0.435282
0.664741
1.0031
1.55985
2.36596
-3.44311
-1.61254
-0.763256
-0.443102
-0.285476
-0.195929
-0.143393
-0.109019
-0.0818884
-0.0558101
-0.0265703
0.00954229
0.056764
0.121232
0.213744
0.354802
0.583042
1.00031
1.96395
3.90899
)
;

boundaryField
{
    movingWall
    {
        type            zeroGradient;
    }
    fixedWalls
    {
        type            zeroGradient;
    }
    frontAndBack
    {
        type            empty;
    }
}


// ************************************************************************* //
