/*--------------------------------*- C++ -*----------------------------------*\
  =========                 |
  \\      /  F ield         | OpenFOAM: The Open Source CFD Toolbox
   \\    /   O peration     | Website:  https://openfoam.org
    \\  /    A nd           | Version:  6
     \\/     M anipulation  |
\*---------------------------------------------------------------------------*/
FoamFile
{
    version     2.0;
    format      ascii;
    class       volVectorField;
    location    "0.085";
    object      U;
}
// * * * * * * * * * * * * * * * * * * * * * * * * * * * * * * * * * * * * * //

dimensions      [0 1 -1 0 0 0 0];

internalField   nonuniform List<vector> 
400
(
(0.000232444 -0.000229439 0)
(0.000114307 0.000119176 0)
(-0.00114597 0.000548506 0)
(-0.00334027 0.000849341 0)
(-0.00608857 0.000998946 0)
(-0.00901676 0.00101268 0)
(-0.0117943 0.000914142 0)
(-0.0141482 0.000727866 0)
(-0.0158668 0.000476778 0)
(-0.0167998 0.000182739 0)
(-0.0168598 -0.000131729 0)
(-0.0160268 -0.000441777 0)
(-0.0143552 -0.000719231 0)
(-0.0119813 -0.000932645 0)
(-0.00912738 -0.00104872 0)
(-0.00609958 -0.0010357 0)
(-0.00327179 -0.000869526 0)
(-0.00105259 -0.000543286 0)
(0.000176477 -9.63817e-05 0)
(0.000250004 0.000244526 0)
(-8.74786e-05 -0.000141203 0)
(-0.0015626 0.00159237 0)
(-0.00544788 0.00345824 0)
(-0.0111732 0.00478938 0)
(-0.0179736 0.00544941 0)
(-0.0250829 0.00546072 0)
(-0.031776 0.00490615 0)
(-0.0374259 0.00389257 0)
(-0.0415358 0.00253414 0)
(-0.0437513 0.000949038 0)
(-0.0438703 -0.000737579 0)
(-0.0418549 -0.00238958 0)
(-0.0378441 -0.00385831 0)
(-0.0321645 -0.00498582 0)
(-0.0253312 -0.00561505 0)
(-0.0180309 -0.00560927 0)
(-0.0110695 -0.00488355 0)
(-0.0052802 -0.00344892 0)
(-0.00143927 -0.00150629 0)
(-4.8777e-05 0.000207765 0)
(-0.00051753 0.00106629 0)
(-0.00356067 0.0054907 0)
(-0.010104 0.00973501 0)
(-0.0190394 0.0127261 0)
(-0.0292605 0.0141612 0)
(-0.0397427 0.0140513 0)
(-0.0495077 0.0125617 0)
(-0.0576998 0.00993386 0)
(-0.0636368 0.00644393 0)
(-0.0668309 0.00238906 0)
(-0.0670047 -0.00191219 0)
(-0.0641073 -0.00611561 0)
(-0.0583304 -0.00985155 0)
(-0.0501204 -0.0127362 0)
(-0.0401779 -0.014399 0)
(-0.0294326 -0.0145316 0)
(-0.0189698 -0.0129606 0)
(-0.00991221 -0.00974284 0)
(-0.0033988 -0.00531667 0)
(-0.000462197 -0.000911498 0)
(-0.000899915 0.00335102 0)
(-0.00545344 0.0116747 0)
(-0.0146106 0.0189627 0)
(-0.0266226 0.0239264 0)
(-0.0400028 0.0261671 0)
(-0.0534957 0.0257221 0)
(-0.0659314 0.0228719 0)
(-0.0762967 0.0180286 0)
(-0.0837879 0.0116721 0)
(-0.0878309 0.00432386 0)
(-0.0880958 -0.00345513 0)
(-0.0845145 -0.0110605 0)
(-0.0773001 -0.0178467 0)
(-0.0669634 -0.0231471 0)
(-0.0543192 -0.0263216 0)
(-0.0404676 -0.0268381 0)
(-0.026717 -0.0243906 0)
(-0.0144661 -0.0190433 0)
(-0.00527571 -0.0114172 0)
(-0.000829712 -0.00308276 0)
(-0.00124013 0.00660434 0)
(-0.00723727 0.0200203 0)
(-0.018965 0.0309733 0)
(-0.0339964 0.0381292 0)
(-0.0504269 0.0411114 0)
(-0.0667669 0.0400631 0)
(-0.0816818 0.0354348 0)
(-0.0940425 0.0278492 0)
(-0.102967 0.0180199 0)
(-0.107825 0.00671777 0)
(-0.108249 -0.00523117 0)
(-0.104144 -0.0169385 0)
(-0.0957141 -0.0274537 0)
(-0.0834883 -0.0357891 0)
(-0.0683438 -0.0409846 0)
(-0.0515076 -0.042221 0)
(-0.0344954 -0.0389837 0)
(-0.019007 -0.0312557 0)
(-0.00709382 -0.019736 0)
(-0.00116171 -0.00621353 0)
(-0.00156472 0.0107715 0)
(-0.00898714 0.030496 0)
(-0.0232861 0.0457653 0)
(-0.0413299 0.0553257 0)
(-0.0607668 0.0589524 0)
(-0.079867 0.0569999 0)
(-0.0971492 0.0501647 0)
(-0.111402 0.0393295 0)
(-0.1217 0.0254697 0)
(-0.127386 0.00961851 0)
(-0.128062 -0.00712828 0)
(-0.123596 -0.0235934 0)
(-0.114154 -0.0385079 0)
(-0.100234 -0.0505324 0)
(-0.0827276 -0.058331 0)
(-0.0629487 -0.0607127 0)
(-0.0426104 -0.0568434 0)
(-0.0237456 -0.0464978 0)
(-0.0089704 -0.0303322 0)
(-0.0014939 -0.0102824 0)
(-0.0018985 0.015852 0)
(-0.0107838 0.0431248 0)
(-0.0277053 0.063368 0)
(-0.0487797 0.0755197 0)
(-0.0711796 0.0796518 0)
(-0.0929372 0.0764584 0)
(-0.112452 0.0669771 0)
(-0.128472 0.0524084 0)
(-0.14007 0.0340143 0)
(-0.146594 0.0130911 0)
(-0.147631 -0.00900963 0)
(-0.143003 -0.030838 0)
(-0.132799 -0.0508118 0)
(-0.117439 -0.0672197 0)
(-0.0977587 -0.0782909 0)
(-0.0751062 -0.0823574 0)
(-0.051364 -0.0781171 0)
(-0.0289194 -0.0649666 0)
(-0.0110382 -0.043369 0)
(-0.00186316 -0.0153479 0)
(-0.00226317 0.0218909 0)
(-0.0127002 0.0579833 0)
(-0.0323335 0.0838294 0)
(-0.0564433 0.0986904 0)
(-0.0816951 0.103111 0)
(-0.105902 0.0982842 0)
(-0.127394 0.0857041 0)
(-0.14494 0.0669535 0)
(-0.157675 0.043601 0)
(-0.164997 0.0171901 0)
(-0.166502 -0.0107084 0)
(-0.161963 -0.0384149 0)
(-0.151358 -0.0640654 0)
(-0.134955 -0.0855757 0)
(-0.113452 -0.100686 0)
(-0.0881335 -0.10713 0)
(-0.0609872 -0.102947 0)
(-0.0347481 -0.0869239 0)
(-0.0134285 -0.0591168 0)
(-0.00230592 -0.0215454 0)
(-0.00268046 0.0289739 0)
(-0.014805 0.0751939 0)
(-0.0372558 0.107195 0)
(-0.0643405 0.124747 0)
(-0.0921833 0.129104 0)
(-0.118425 0.122162 0)
(-0.14141 0.106011 0)
(-0.160027 0.0826871 0)
(-0.173561 0.0540736 0)
(-0.181531 0.0219254 0)
(-0.183586 -0.012033 0)
(-0.17945 -0.0459703 0)
(-0.168957 -0.0778086 0)
(-0.152144 -0.105124 0)
(-0.129444 -0.125134 0)
(-0.101938 -0.134845 0)
(-0.0715866 -0.131402 0)
(-0.0414122 -0.11266 0)
(-0.0162714 -0.0779434 0)
(-0.00286132 -0.0290849 0)
(-0.00317985 0.037229 0)
(-0.0171818 0.0949148 0)
(-0.0425473 0.133467 0)
(-0.0724101 0.153453 0)
(-0.102325 0.157175 0)
(-0.129855 0.147503 0)
(-0.153499 0.127289 0)
(-0.172406 0.0990891 0)
(-0.186136 0.065097 0)
(-0.194429 0.0272141 0)
(-0.197044 -0.0127831 0)
(-0.193683 -0.0530312 0)
(-0.184004 -0.0913566 0)
(-0.167724 -0.12508 0)
(-0.144859 -0.150909 0)
(-0.116078 -0.165007 0)
(-0.0830852 -0.163348 0)
(-0.0490403 -0.142415 0)
(-0.0197066 -0.100291 0)
(-0.00357891 -0.0382544 0)
(-0.00381293 0.0468459 0)
(-0.0199626 0.117338 0)
(-0.0483002 0.162546 0)
(-0.0805031 0.184319 0)
(-0.111566 0.186507 0)
(-0.139149 0.173308 0)
(-0.162122 0.148523 0)
(-0.180093 0.11529 0)
(-0.193058 0.0760728 0)
(-0.201097 0.0328198 0)
(-0.204162 -0.0127805 0)
(-0.201975 -0.0590006 0)
(-0.194008 -0.103749 0)
(-0.179582 -0.14425 0)
(-0.15812 -0.176788 0)
(-0.129602 -0.196629 0)
(-0.0951322 -0.198277 0)
(-0.0576883 -0.176266 0)
(-0.023904 -0.126641 0)
(-0.00453237 -0.0494373 0)
(-0.004679 0.0581266 0)
(-0.0233792 0.142699 0)
(-0.0546476 0.19415 0)
(-0.0883419 0.216452 0)
(-0.119009 0.215745 0)
(-0.144724 0.198 0)
(-0.165049 0.168164 0)
(-0.180304 0.129967 0)
(-0.191109 0.0860569 0)
(-0.198005 0.038289 0)
(-0.201234 -0.0119167 0)
(-0.200597 -0.0631787 0)
(-0.195408 -0.113725 0)
(-0.184548 -0.160935 0)
(-0.166697 -0.200879 0)
(-0.140824 -0.227983 0)
(-0.106941 -0.235041 0)
(-0.067288 -0.213927 0)
(-0.029091 -0.157464 0)
(-0.00584362 -0.0631537 0)
(-0.00597063 0.0715876 0)
(-0.027834 0.171282 0)
(-0.0617483 0.227658 0)
(-0.0953742 0.248314 0)
(-0.12317 0.242756 0)
(-0.144183 0.219245 0)
(-0.159105 0.183997 0)
(-0.169262 0.141262 0)
(-0.176057 0.0937078 0)
(-0.1806 0.042901 0)
(-0.183487 -0.0102101 0)
(-0.184677 -0.0648211 0)
(-0.183404 -0.119761 0)
(-0.178149 -0.172903 0)
(-0.166775 -0.220469 0)
(-0.146953 -0.256321 0)
(-0.116998 -0.271487 0)
(-0.0775143 -0.254444 0)
(-0.0355794 -0.193114 0)
(-0.00772391 -0.0801425 0)
(-0.00804825 0.0881436 0)
(-0.0339682 0.20337 0)
(-0.0696292 0.261794 0)
(-0.10037 0.277335 0)
(-0.121458 0.264325 0)
(-0.133798 0.233769 0)
(-0.13976 0.193092 0)
(-0.141917 0.146804 0)
(-0.142531 0.0973142 0)
(-0.143273 0.0456684 0)
(-0.145111 -0.0078585 0)
(-0.148224 -0.0632451 0)
(-0.151897 -0.120193 0)
(-0.154386 -0.177461 0)
(-0.152852 -0.231964 0)
(-0.143552 -0.277594 0)
(-0.12251 -0.303958 0)
(-0.0874558 -0.295651 0)
(-0.0437444 -0.233577 0)
(-0.0105327 -0.101493 0)
(-0.0115233 0.109374 0)
(-0.0425988 0.238964 0)
(-0.0776 0.29398 0)
(-0.100438 0.299322 0)
(-0.109104 0.275825 0)
(-0.107615 0.237313 0)
(-0.1005 0.191932 0)
(-0.0916148 0.143911 0)
(-0.0839192 0.0949929 0)
(-0.0794621 0.0454495 0)
(-0.0794617 -0.00525571 0)
(-0.0843345 -0.0579902 0)
(-0.0935968 -0.113498 0)
(-0.105618 -0.171779 0)
(-0.117281 -0.231092 0)
(-0.123717 -0.286334 0)
(-0.118405 -0.326736 0)
(-0.0948062 -0.333318 0)
(-0.0537673 -0.277888 0)
(-0.0148035 -0.128783 0)
(-0.0171693 0.137927 0)
(-0.054016 0.276947 0)
(-0.0824889 0.319074 0)
(-0.088816 0.307651 0)
(-0.0771976 0.271048 0)
(-0.0560357 0.224922 0)
(-0.0320061 0.17694 0)
(-0.00977448 0.130158 0)
(0.00756044 0.0851551 0)
(0.0180337 0.0412414 0)
(0.0204631 -0.00292603 0)
(0.0142715 -0.049014 0)
(-0.000468125 -0.0987553 0)
(-0.0227247 -0.15354 0)
(-0.049904 -0.21355 0)
(-0.0769786 -0.275953 0)
(-0.0955328 -0.331578 0)
(-0.0939612 -0.359859 0)
(-0.0645436 -0.322922 0)
(-0.0209717 -0.164276 0)
(-0.0249352 0.178415 0)
(-0.0651856 0.312831 0)
(-0.0740507 0.326746 0)
(-0.0503938 0.292035 0)
(-0.00948773 0.24231 0)
(0.0359891 0.191784 0)
(0.0785641 0.145527 0)
(0.114102 0.104339 0)
(0.140412 0.0672586 0)
(0.156332 0.0326632 0)
(0.161148 -0.00134499 0)
(0.154303 -0.036867 0)
(0.135361 -0.0762293 0)
(0.104259 -0.121932 0)
(0.0619987 -0.176226 0)
(0.0119985 -0.239669 0)
(-0.0377377 -0.307488 0)
(-0.0720363 -0.362354 0)
(-0.0704515 -0.360931 0)
(-0.0279413 -0.211414 0)
(-0.0290823 0.235384 0)
(-0.0608979 0.331949 0)
(-0.0244939 0.297609 0)
(0.0461484 0.238532 0)
(0.12183 0.182504 0)
(0.190402 0.13574 0)
(0.247403 0.09827 0)
(0.291472 0.0680922 0)
(0.322605 0.0428986 0)
(0.341143 0.0205998 0)
(0.347222 -0.000702025 0)
(0.340531 -0.0229119 0)
(0.320204 -0.0482057 0)
(0.284883 -0.0793283 0)
(0.233129 -0.119805 0)
(0.164606 -0.173557 0)
(0.0824342 -0.242632 0)
(-0.00131236 -0.32065 0)
(-0.0531109 -0.372617 0)
(-0.0274644 -0.270586 0)
(0.00840505 0.278739 0)
(0.0187458 0.292556 0)
(0.134569 0.209788 0)
(0.258712 0.143334 0)
(0.35817 0.0976343 0)
(0.434102 0.0664513 0)
(0.490755 0.0449595 0)
(0.53141 0.0296055 0)
(0.558687 0.0179209 0)
(0.5744 0.00823333 0)
(0.579469 -0.00069013 0)
(0.573915 -0.00995361 0)
(0.556784 -0.0208327 0)
(0.525958 -0.0351624 0)
(0.477955 -0.0559186 0)
(0.407878 -0.0879784 0)
(0.309084 -0.138665 0)
(0.177066 -0.216377 0)
(0.045471 -0.313046 0)
(0.0215202 -0.301122 0)
(0.299872 0.145056 0)
(0.395437 0.126889 0)
(0.554166 0.0761914 0)
(0.671034 0.0441258 0)
(0.740785 0.0260113 0)
(0.784402 0.0156089 0)
(0.813084 0.00948766 0)
(0.831891 0.00571072 0)
(0.843642 0.00317805 0)
(0.849947 0.00126965 0)
(0.851581 -0.000393988 0)
(0.848673 -0.00210802 0)
(0.840724 -0.00420852 0)
(0.826384 -0.00723546 0)
(0.802957 -0.0122272 0)
(0.765253 -0.0212825 0)
(0.701532 -0.0385856 0)
(0.587006 -0.0718534 0)
(0.419771 -0.127188 0)
(0.31147 -0.149178 0)
)
;

boundaryField
{
    movingWall
    {
        type            fixedValue;
        value           uniform (1 0 0);
    }
    fixedWalls
    {
        type            noSlip;
    }
    frontAndBack
    {
        type            empty;
    }
}


// ************************************************************************* //
