/*--------------------------------*- C++ -*----------------------------------*\
  =========                 |
  \\      /  F ield         | OpenFOAM: The Open Source CFD Toolbox
   \\    /   O peration     | Website:  https://openfoam.org
    \\  /    A nd           | Version:  6
     \\/     M anipulation  |
\*---------------------------------------------------------------------------*/
FoamFile
{
    version     2.0;
    format      ascii;
    class       volScalarField;
    location    "0.01";
    object      p;
}
// * * * * * * * * * * * * * * * * * * * * * * * * * * * * * * * * * * * * * //

dimensions      [0 2 -2 0 0 0 0];

internalField   nonuniform List<scalar> 
400
(
-8.04395e-07
-0.0321506
-0.0715308
-0.101017
-0.110552
-0.0957102
-0.0562959
0.00485567
0.0828595
0.171524
0.263915
0.352829
0.431239
0.492805
0.532492
0.547369
0.537632
0.507824
0.468203
0.436027
0.0318394
-0.00121991
-0.0320924
-0.0521815
-0.0565163
-0.0419588
-0.00819195
0.0427189
0.10703
0.179871
0.255708
0.328756
0.393402
0.444656
0.478651
0.49324
0.488732
0.46836
0.437272
0.4042
0.0736845
0.0277791
-0.00582644
-0.0244206
-0.0277052
-0.0139563
0.0167166
0.0623088
0.119507
0.184094
0.251288
0.316097
0.373662
0.419636
0.450574
0.464373
0.460907
0.44199
0.408115
0.362173
0.111849
0.0481063
0.00596402
-0.0155542
-0.0199829
-0.00686887
0.0230109
0.0672899
0.122607
0.184911
0.249703
0.312298
0.368107
0.412919
0.4432
0.456444
0.451836
0.429919
0.387387
0.32352
0.137558
0.0546293
0.00211474
-0.0235775
-0.0293045
-0.015762
0.015518
0.0616054
0.118845
0.183092
0.249868
0.314533
0.372492
0.419394
0.45134
0.465198
0.459351
0.433183
0.3801
0.296858
0.144447
0.0414336
-0.0221467
-0.0519728
-0.0580243
-0.042122
-0.00665164
0.0447297
0.107886
0.178391
0.251597
0.32272
0.386959
0.43961
0.4762
0.492766
0.486762
0.456415
0.392025
0.288362
0.126805
0.00248236
-0.072295
-0.105221
-0.109578
-0.0884483
-0.0452357
0.0155004
0.0889873
0.170388
0.254765
0.337078
0.412191
0.474893
0.519943
0.542333
0.538376
0.504968
0.429084
0.303583
0.0782475
-0.0690408
-0.154595
-0.188483
-0.187916
-0.157588
-0.102186
-0.0273713
0.0613257
0.158595
0.259188
0.357789
0.448891
0.526693
0.585022
0.617575
0.619196
0.585037
0.498055
0.34882
-0.00936734
-0.181648
-0.276784
-0.308063
-0.297797
-0.252911
-0.179766
-0.0853493
0.0239791
0.142469
0.264652
0.385046
0.497857
0.596704
0.674371
0.72297
0.735406
0.704379
0.607541
0.432277
-0.147014
-0.346482
-0.448647
-0.471612
-0.444715
-0.37808
-0.280265
-0.1598
-0.0238642
0.12152
0.270919
0.418958
0.559804
0.686654
0.791232
0.86377
0.89462
0.872937
0.768968
0.565223
-0.349931
-0.578518
-0.682656
-0.688211
-0.63461
-0.536575
-0.405471
-0.251529
-0.0825643
0.0955058
0.277749
0.459401
0.635073
0.797919
0.938771
1.04578
1.10603
1.10355
0.997893
0.763563
-0.640034
-0.898381
-0.994743
-0.968282
-0.873277
-0.730894
-0.555895
-0.360125
-0.151549
0.0646985
0.284952
0.505853
0.723242
0.93096
1.11947
1.2749
1.38037
1.41279
1.31592
1.05041
-1.05052
-1.33521
-1.40512
-1.32305
-1.16519
-0.961247
-0.729577
-0.483015
-0.228665
0.0302488
0.292458
0.557152
0.822581
1.08448
1.33406
1.55612
1.72958
1.82191
1.7537
1.46095
-1.63546
-1.93134
-1.93867
-1.76286
-1.51119
-1.22334
-0.920326
-0.614217
-0.309383
-0.00542304
0.300333
0.611117
0.929196
1.25405
1.57966
1.89145
2.16516
2.35731
2.35574
2.05233
-2.48965
-2.74909
-2.62329
-2.29257
-1.90377
-1.50467
-1.11515
-0.742757
-0.385963
-0.0383467
0.308589
0.663842
1.03565
1.42974
1.84631
2.27547
2.69385
3.04889
3.18728
2.924
-3.78265
-3.87674
-3.48364
-2.9038
-2.32072
-1.78021
-1.29192
-0.851664
-0.447219
-0.0631734
0.316743
0.708927
1.12955
1.59368
2.11268
2.68902
3.30985
3.92389
4.33994
4.25162
-5.81855
-5.42834
-4.52967
-3.56831
-2.72228
-2.0121
-1.42053
-0.91972
-0.480174
-0.0743407
0.323304
0.737533
1.19391
1.71997
2.34496
3.09596
3.98801
4.99496
5.93095
6.3459
-9.27637
-7.54779
-5.69802
-4.19277
-3.02466
-2.13583
-1.4567
-0.919416
-0.470021
-0.0669779
0.324209
0.735844
1.20255
1.7661
2.48071
3.41462
4.63698
6.20119
8.10916
9.89445
-15.9288
-10.3249
-6.57198
-4.39344
-2.95988
-1.98026
-1.29696
-0.791845
-0.387434
-0.0331942
0.308545
0.671773
1.09431
1.62696
2.34771
3.37614
4.87266
7.12803
10.9704
16.6763
-27.0793
-12.9958
-6.28833
-3.60502
-2.21595
-1.38851
-0.865917
-0.502423
-0.218723
0.0287094
0.268645
0.52598
0.829552
1.2229
1.78527
2.66414
4.12388
6.90437
13.726
27.9242
)
;

boundaryField
{
    movingWall
    {
        type            zeroGradient;
    }
    fixedWalls
    {
        type            zeroGradient;
    }
    frontAndBack
    {
        type            empty;
    }
}


// ************************************************************************* //
