/*--------------------------------*- C++ -*----------------------------------*\
  =========                 |
  \\      /  F ield         | OpenFOAM: The Open Source CFD Toolbox
   \\    /   O peration     | Website:  https://openfoam.org
    \\  /    A nd           | Version:  6
     \\/     M anipulation  |
\*---------------------------------------------------------------------------*/
FoamFile
{
    version     2.0;
    format      ascii;
    class       volScalarField;
    location    "0.1";
    object      p;
}
// * * * * * * * * * * * * * * * * * * * * * * * * * * * * * * * * * * * * * //

dimensions      [0 2 -2 0 0 0 0];

internalField   nonuniform List<scalar> 
400
(
1.49717e-08
-0.000805958
-0.00159551
-0.00196563
-0.00175638
-0.000923908
0.000505938
0.00246488
0.00485697
0.00756236
0.0104363
0.0133089
0.0159894
0.018279
0.0199924
0.0209907
0.0212229
0.0207668
0.0198671
0.0190121
0.000799764
-3.16768e-05
-0.000626307
-0.000805717
-0.000516096
0.000277771
0.00156588
0.00330048
0.00540636
0.00778342
0.0103069
0.012829
0.0151854
0.0172076
0.0187429
0.0196821
0.0199923
0.0197369
0.0190435
0.0181699
0.00163894
0.000511083
-0.000135249
-0.00027821
2.58517e-05
0.000788172
0.00199794
0.00361491
0.00557616
0.00779533
0.0101609
0.0125375
0.0147712
0.0167017
0.0181811
0.0190994
0.0194173
0.0191733
0.018394
0.0172017
0.00213498
0.000631454
-0.000178569
-0.000368435
-8.50474e-05
0.000658161
0.00184352
0.00343186
0.00536708
0.00757162
0.00994151
0.0123451
0.0146267
0.0166176
0.018154
0.0191044
0.019407
0.019075
0.0180633
0.0164407
0.00208487
0.000206184
-0.000792957
-0.0010516
-0.000791664
-4.7325e-05
0.00115724
0.00278303
0.00477932
0.00707544
0.0095721
0.0121368
0.0146046
0.0167872
0.0184908
0.019547
0.0198598
0.0194144
0.0181117
0.0160106
0.00134398
-0.000914357
-0.00211259
-0.00244255
-0.00219426
-0.00142008
-0.000149476
0.00157935
0.00372143
0.00621313
0.00895929
0.0118244
0.0146293
0.0171566
0.0191679
0.02044
0.0208257
0.0202721
0.018626
0.0159612
-0.000215503
-0.0028812
-0.00428898
-0.00468387
-0.0044274
-0.0035904
-0.00220686
-0.000312641
0.00205529
0.0048431
0.0079626
0.0112769
0.0145909
0.0176508
0.0201581
0.0218106
0.0223825
0.0217587
0.0197082
0.0163268
-0.00273488
-0.00586095
-0.00749208
-0.00793939
-0.00765034
-0.00671799
-0.00518071
-0.00306961
-0.000409213
0.00276266
0.00637219
0.0102886
0.0143056
0.0181303
0.0213888
0.0236684
0.0246217
0.024024
0.0215071
0.0171755
-0.00639455
-0.0100584
-0.0119285
-0.0124085
-0.0120584
-0.0110013
-0.00928049
-0.00691908
-0.00392259
-0.000303089
0.00389315
0.00855724
0.013487
0.0183584
0.0227115
0.0259861
0.027649
0.027282
0.0242657
0.0186663
-0.0114371
-0.0157371
-0.017855
-0.0183319
-0.0178822
-0.0166715
-0.0147493
-0.012127
-0.00878326
-0.00469167
0.000148046
0.00567505
0.0117223
0.0179618
0.0238544
0.0286571
0.031565
0.0318302
0.0283799
0.0211282
-0.0181957
-0.0232448
-0.0255916
-0.0259901
-0.0253737
-0.0239677
-0.0218299
-0.0189559
-0.0152897
-0.010753
-0.00527625
0.00116431
0.00848786
0.0164204
0.0243858
0.0314479
0.0364342
0.0380647
0.0344766
0.0251869
-0.0271416
-0.0330505
-0.0355338
-0.0356911
-0.0347725
-0.0330853
-0.0306953
-0.0275787
-0.0236386
-0.018734
-0.0127038
-0.00539762
0.00325979
0.0131453
0.0237472
0.0339892
0.0422638
0.0464994
0.0435257
0.0319757
-0.0389748
-0.0458052
-0.0481617
-0.0477341
-0.0462367
-0.0440798
-0.0413301
-0.037937
-0.0337583
-0.0285843
-0.0221468
-0.0141301
-0.00422527
0.00772475
0.0214476
0.0358939
0.0490602
0.0578279
0.0570166
0.0435056
-0.0548215
-0.0624457
-0.0640317
-0.0623272
-0.0597177
-0.0567153
-0.053359
-0.049553
-0.0451002
-0.039718
-0.0330232
-0.0245096
-0.0135709
0.000364095
0.0174932
0.0371061
0.0570604
0.0730958
0.0772622
0.0633319
-0.0766796
-0.0843613
-0.0836975
-0.0793985
-0.074738
-0.0702411
-0.0658388
-0.0613403
-0.0564637
-0.0508372
-0.0439534
-0.0351056
-0.0233581
-0.00763443
0.0129548
0.0384598
0.0671609
0.0939915
0.107816
0.0975881
-0.108357
-0.113608
-0.107475
-0.0982556
-0.0900711
-0.0831356
-0.0770867
-0.0715241
-0.0660007
-0.0600027
-0.0528695
-0.0436834
-0.0311798
-0.013755
0.0103004
0.042198
0.0814394
0.123154
0.153739
0.155997
-0.157514
-0.153068
-0.135063
-0.11728
-0.103545
-0.0930498
-0.0847856
-0.0778998
-0.0716123
-0.0651595
-0.0576643
-0.0479704
-0.0344867
-0.0150968
0.0127703
0.0517576
0.103367
0.164527
0.222115
0.253352
-0.242915
-0.206148
-0.163941
-0.132859
-0.111516
-0.0967233
-0.0862552
-0.0783635
-0.0716692
-0.065032
-0.0573044
-0.0470774
-0.0324417
-0.0107689
0.0214492
0.0685847
0.134969
0.221888
0.32458
0.419619
-0.419148
-0.273015
-0.179461
-0.131931
-0.104517
-0.0876663
-0.077306
-0.0704392
-0.0649549
-0.0593849
-0.0524302
-0.0425735
-0.0277526
-0.0049984
0.0300565
0.0838595
0.165299
0.286144
0.470988
0.719855
-0.757838
-0.332757
-0.151511
-0.0953886
-0.0721987
-0.0607127
-0.0557548
-0.0536951
-0.0521464
-0.0497224
-0.0453342
-0.0376986
-0.024992
-0.00445565
0.0282779
0.0807033
0.167096
0.317832
0.615546
1.15647
)
;

boundaryField
{
    movingWall
    {
        type            zeroGradient;
    }
    fixedWalls
    {
        type            zeroGradient;
    }
    frontAndBack
    {
        type            empty;
    }
}


// ************************************************************************* //
