/*--------------------------------*- C++ -*----------------------------------*\
  =========                 |
  \\      /  F ield         | OpenFOAM: The Open Source CFD Toolbox
   \\    /   O peration     | Website:  https://openfoam.org
    \\  /    A nd           | Version:  6
     \\/     M anipulation  |
\*---------------------------------------------------------------------------*/
FoamFile
{
    version     2.0;
    format      ascii;
    class       volScalarField;
    location    "0.27";
    object      p;
}
// * * * * * * * * * * * * * * * * * * * * * * * * * * * * * * * * * * * * * //

dimensions      [0 2 -2 0 0 0 0];

internalField   nonuniform List<scalar> 
400
(
6.55056e-06
-0.023186
-0.0520658
-0.074321
-0.082642
-0.0737554
-0.0474164
-0.00555874
0.0483945
0.110046
0.174427
0.236346
0.290735
0.333034
0.359654
0.368563
0.360019
0.337434
0.308332
0.285149
0.02299
-0.000840501
-0.0235032
-0.0388471
-0.043277
-0.0344945
-0.0122018
0.0222074
0.0661376
0.116168
0.168374
0.218632
0.262935
0.297725
0.320267
0.32908
0.324469
0.308842
0.285984
0.262194
0.053537
0.0205158
-0.00400568
-0.0181572
-0.0217575
-0.0135545
0.00643056
0.0368485
0.0754286
0.119245
0.164951
0.209025
0.24803
0.278891
0.299182
0.307449
0.303663
0.289184
0.264411
0.231421
0.0816228
0.0359422
0.00545157
-0.0106855
-0.0150829
-0.00741585
0.0118196
0.0410305
0.0779373
0.119766
0.163403
0.205579
0.24307
0.272911
0.292618
0.300448
0.29587
0.279319
0.248444
0.202706
0.100731
0.0416739
0.00403369
-0.0149479
-0.0202778
-0.0124542
0.00750502
0.0376358
0.0754847
0.11825
0.162868
0.206131
0.244832
0.27592
0.296659
0.30486
0.299418
0.279935
0.241712
0.182396
0.106185
0.0334807
-0.0116158
-0.0333654
-0.038962
-0.0296859
-0.0071254
0.0262858
0.0677996
0.11446
0.163121
0.210505
0.25328
0.28816
0.312009
0.322056
0.316537
0.294238
0.248297
0.174973
0.0939274
0.00716741
-0.0452604
-0.0690013
-0.0734799
-0.0608228
-0.0332806
0.00614182
0.0543063
0.108016
0.163964
0.218723
0.268746
0.310403
0.340025
0.354113
0.350106
0.325866
0.27228
0.184331
0.0596274
-0.0418536
-0.101096
-0.125304
-0.126472
-0.107779
-0.0722947
-0.0237104
0.0343753
0.0984893
0.165151
0.230769
0.291556
0.343479
0.382228
0.403401
0.40342
0.378955
0.318224
0.214732
-0.00204135
-0.119169
-0.184207
-0.206422
-0.201079
-0.172795
-0.125696
-0.0642934
0.00731877
0.0854203
0.16642
0.246638
0.322102
0.388384
0.440452
0.472809
0.480537
0.458637
0.391835
0.271596
-0.0981025
-0.231973
-0.300939
-0.317327
-0.30088
-0.258268
-0.195
-0.116536
-0.0274497
0.0684132
0.167522
0.266294
0.360742
0.446146
0.516741
0.565733
0.586445
0.571465
0.500648
0.362305
-0.23822
-0.389872
-0.45932
-0.463863
-0.429686
-0.366412
-0.281329
-0.180935
-0.0701502
0.0473027
0.168271
0.289607
0.407632
0.517595
0.61311
0.685949
0.727174
0.725908
0.654919
0.497275
-0.436303
-0.606089
-0.669578
-0.652676
-0.591124
-0.498704
-0.384858
-0.257064
-0.120268
0.0223864
0.168632
0.316288
0.462517
0.60303
0.731171
0.837322
0.909823
0.932942
0.868948
0.691721
-0.713585
-0.899402
-0.944703
-0.890868
-0.787856
-0.654987
-0.503991
-0.342917
-0.176074
-0.00528563
0.168817
0.345784
0.524415
0.7017
0.871474
1.0232
1.14232
1.2067
1.16312
0.968971
-1.10504
-1.29729
-1.30074
-1.18488
-1.02003
-0.831989
-0.634165
-0.434043
-0.234068
-0.0336184
0.16933
0.377058
0.591082
0.810922
1.0323
1.24505
1.43243
1.56486
1.5672
1.3672
-1.67261
-1.84051
-1.75571
-1.53746
-1.28215
-1.02083
-0.766131
-0.522487
-0.288421
-0.0592904
0.170834
0.408116
0.658099
0.92454
1.20734
1.4995
1.78482
2.02754
2.12493
1.95306
-2.52804
-2.58723
-2.32554
-1.94252
-1.55887
-1.20424
-0.884447
-0.59619
-0.330904
-0.0779625
0.173764
0.435412
0.717879
1.03122
1.38287
1.77417
2.19596
2.61319
2.89777
2.84434
-3.873
-3.61305
-3.0165
-2.38086
-1.82324
-1.35642
-0.968443
-0.640399
-0.352263
-0.0853345
0.177704
0.453625
0.759657
1.11425
1.53688
2.04545
2.64948
3.33063
3.96435
4.24908
-6.15941
-5.01373
-3.78644
-2.79027
-2.01928
-1.43417
-0.98842
-0.636629
-0.342543
-0.078135
0.179932
0.453514
0.765968
1.14532
1.62783
2.259
3.0847
4.13978
5.42507
6.62751
-10.5695
-6.84899
-4.35764
-2.91497
-1.96811
-1.32305
-0.875107
-0.545549
-0.282408
-0.0515977
0.172433
0.412776
0.695022
1.05334
1.53993
2.23474
3.24505
4.76455
7.34525
11.1677
-17.9825
-8.6112
-4.15441
-2.37805
-1.46163
-0.918361
-0.57836
-0.344499
-0.163423
-0.0055336
0.148965
0.31727
0.519129
0.783953
1.16479
1.76025
2.74769
4.62118
9.19196
18.678
)
;

boundaryField
{
    movingWall
    {
        type            zeroGradient;
    }
    fixedWalls
    {
        type            zeroGradient;
    }
    frontAndBack
    {
        type            empty;
    }
}


// ************************************************************************* //
