/*--------------------------------*- C++ -*----------------------------------*\
  =========                 |
  \\      /  F ield         | OpenFOAM: The Open Source CFD Toolbox
   \\    /   O peration     | Website:  https://openfoam.org
    \\  /    A nd           | Version:  6
     \\/     M anipulation  |
\*---------------------------------------------------------------------------*/
FoamFile
{
    version     2.0;
    format      ascii;
    class       volScalarField;
    location    "0.02";
    object      p;
}
// * * * * * * * * * * * * * * * * * * * * * * * * * * * * * * * * * * * * * //

dimensions      [0 2 -2 0 0 0 0];

internalField   nonuniform List<scalar> 
400
(
6.64031e-09
-4.29154e-05
0.000348866
0.00119168
0.00243927
0.00405089
0.00597905
0.00816758
0.0105532
0.0130668
0.0156353
0.0181828
0.0206322
0.0229077
0.0249364
0.0266507
0.0279917
0.0289079
0.0293448
0.0293166
4.05924e-05
-9.94656e-06
0.000390808
0.00123449
0.0024759
0.00407893
0.00599782
0.00817705
0.0105537
0.0130591
0.0156203
0.0181613
0.0206053
0.0228763
0.0249013
0.0266128
0.0279528
0.0288737
0.0293214
0.0292858
-0.000353196
-0.000427455
-1.95763e-05
0.000846901
0.0021211
0.00376653
0.00573663
0.00797469
0.0104165
0.0129919
0.0156263
0.0182422
0.0207606
0.0231031
0.0251942
0.0269634
0.0283501
0.0293046
0.0297652
0.0297066
-0.00122371
-0.00131549
-0.00088909
2.5904e-05
0.00137251
0.0031114
0.0051932
0.00755816
0.010139
0.0128625
0.0156508
0.0184228
0.0210955
0.0235861
0.0258137
0.0277022
0.029185
0.0302064
0.0306963
0.0306225
-0.00257824
-0.0026837
-0.00222378
-0.00123218
0.000227281
0.0021109
0.0043647
0.00692417
0.00971736
0.0126664
0.0156887
0.018698
0.0216056
0.0243221
0.0267587
0.0288307
0.0304622
0.0315886
0.0321287
0.0320453
-0.0044558
-0.00457559
-0.00406608
-0.00296627
-0.00134923
0.000735024
0.00322592
0.00605232
0.00913592
0.0123928
0.0157345
0.0190682
0.0222982
0.025326
0.0280527
0.0303812
0.0322227
0.0334988
0.0341135
0.034022
-0.00691545
-0.007052
-0.00647461
-0.00523015
-0.00340464
-0.00105713
0.0017427
0.00491495
0.00837337
0.0120269
0.01578
0.0195329
0.0231813
0.0266165
0.0297261
0.0323972
0.0345221
0.0360035
0.0367226
0.0366236
-0.0100361
-0.0101928
-0.00952544
-0.00809276
-0.0059992
-0.00331674
-0.00012736
0.00347777
0.00740289
0.0115489
0.0158132
0.0200887
0.0242623
0.0282136
0.0318147
0.0349316
0.0374317
0.0391891
0.0400521
0.0399466
-0.0139211
-0.0141022
-0.0133166
-0.0116415
-0.00920785
-0.00610625
-0.00243533
0.00169961
0.0061918
0.0109339
0.0158169
0.0207275
0.0255447
0.0301367
0.0343576
0.0380478
0.0410402
0.0431683
0.0442295
0.0441201
-0.0187055
-0.0189158
-0.0179735
-0.0159852
-0.0131214
-0.00949941
-0.00524027
-0.000466858
0.00470186
0.010151
0.0157672
0.0214338
0.0270251
0.0323997
0.0373935
0.0418162
0.0454558
0.0480854
0.0494245
0.0493174
-0.0245669
-0.0248108
-0.0236559
-0.0212581
-0.0178475
-0.0135802
-0.00860728
-0.00307309
0.00289065
0.00916353
0.0156318
0.0221811
0.028687
0.035004
0.0409528
0.0463098
0.050805
0.0541246
0.0558643
0.0557746
-0.0317445
-0.0320235
-0.0305693
-0.0276241
-0.0235104
-0.01844
-0.0126035
-0.00617072
0.000714423
0.00793003
0.0153687
0.0229273
0.030493
0.0379274
0.0450451
0.0515916
0.0572283
0.0615183
0.0638587
0.0638229
-0.0405736
-0.0408772
-0.0389797
-0.0352816
-0.030249
-0.0241718
-0.0172908
-0.00980442
-0.0018661
0.00640766
0.0149261
0.02361
0.0323748
0.0411076
0.0496367
0.0576922
0.0648647
0.0705532
0.0738379
0.0739489
-0.0515515
-0.0518317
-0.0492368
-0.0444669
-0.0382099
-0.0308582
-0.0227126
-0.0139997
-0.00487589
0.00455882
0.0142443
0.0241432
0.0342209
0.0444192
0.0546162
0.0645655
0.0738133
0.0815656
0.0864163
0.0869271
-0.0654763
-0.0655692
-0.0617996
-0.0554508
-0.0475304
-0.03855
-0.028872
-0.0187437
-0.00830991
0.00236277
0.0132632
0.0244168
0.035866
0.0476461
0.0597418
0.0720103
0.0840465
0.0949074
0.102504
0.10412
-0.0837399
-0.0831377
-0.0772604
-0.0685211
-0.058309
-0.0472321
-0.0357004
-0.0239582
-0.0121111
-0.000166655
0.0119353
0.0243042
0.0370863
0.0504519
0.0645674
0.0795284
0.0952008
0.110737
0.123266
0.127845
-0.109067
-0.106226
-0.0964251
-0.0840012
-0.0705757
-0.0567747
-0.0430076
-0.0294569
-0.0161344
-0.00294871
0.0102578
0.0236952
0.0376284
0.0523892
0.0683908
0.08613
0.106101
0.128158
0.149266
0.161698
-0.148208
-0.137617
-0.120241
-0.101968
-0.0839301
-0.0666083
-0.0502332
-0.0347637
-0.0200094
-0.00571954
0.00838709
0.022626
0.037372
0.0531076
0.0705059
0.0905671
0.114774
0.144981
0.181882
0.217151
-0.220234
-0.178617
-0.144882
-0.118368
-0.095059
-0.0741983
-0.0555183
-0.0385394
-0.0227645
-0.00775973
0.0068685
0.0215142
0.0366261
0.0527999
0.0709641
0.0927654
0.121392
0.163636
0.23396
0.334212
-0.361003
-0.213925
-0.14985
-0.120405
-0.0965935
-0.0750819
-0.0560788
-0.0389987
-0.0231953
-0.00819768
0.00638802
0.0209515
0.0359395
0.051976
0.0701724
0.0929969
0.126796
0.187174
0.308663
0.528193
)
;

boundaryField
{
    movingWall
    {
        type            zeroGradient;
    }
    fixedWalls
    {
        type            zeroGradient;
    }
    frontAndBack
    {
        type            empty;
    }
}


// ************************************************************************* //
