/*--------------------------------*- C++ -*----------------------------------*\
  =========                 |
  \\      /  F ield         | OpenFOAM: The Open Source CFD Toolbox
   \\    /   O peration     | Website:  https://openfoam.org
    \\  /    A nd           | Version:  6
     \\/     M anipulation  |
\*---------------------------------------------------------------------------*/
FoamFile
{
    version     2.0;
    format      ascii;
    class       volVectorField;
    location    "0.29";
    object      U;
}
// * * * * * * * * * * * * * * * * * * * * * * * * * * * * * * * * * * * * * //

dimensions      [0 1 -1 0 0 0 0];

internalField   nonuniform List<vector> 
400
(
(9.71956e-05 -9.95654e-05 0)
(-0.000185251 0.000202894 0)
(-0.00130895 0.000483184 0)
(-0.00299097 0.000644386 0)
(-0.0049423 0.000711177 0)
(-0.00696016 0.000712925 0)
(-0.00889426 0.000666815 0)
(-0.010619 0.000578349 0)
(-0.0120134 0.00044524 0)
(-0.0129516 0.000263387 0)
(-0.0133073 3.35044e-05 0)
(-0.012975 -0.000232701 0)
(-0.0119017 -0.000508224 0)
(-0.0101253 -0.000750438 0)
(-0.00780498 -0.000906953 0)
(-0.0052284 -0.000928495 0)
(-0.0027814 -0.000786311 0)
(-0.000877206 -0.000487818 0)
(0.000145208 -9.53909e-05 0)
(0.000200864 0.000188284 0)
(-0.000211467 0.000178454 0)
(-0.00162892 0.00158286 0)
(-0.00474617 0.00278468 0)
(-0.00895017 0.00350854 0)
(-0.0136871 0.0038132 0)
(-0.0185385 0.00379119 0)
(-0.0231535 0.00350571 0)
(-0.0272221 0.00298344 0)
(-0.0304523 0.00222601 0)
(-0.0325591 0.00123243 0)
(-0.0332783 2.5353e-05 0)
(-0.0324067 -0.00132482 0)
(-0.0298634 -0.00268452 0)
(-0.0257576 -0.00385882 0)
(-0.0204419 -0.00461863 0)
(-0.0145208 -0.00475632 0)
(-0.00878359 -0.00416014 0)
(-0.00405653 -0.00288333 0)
(-0.00102908 -0.00120586 0)
(-6.55974e-06 0.000182526 0)
(-0.000547447 0.00136842 0)
(-0.00310443 0.00478104 0)
(-0.00804305 0.00747083 0)
(-0.0143605 0.00909819 0)
(-0.0213041 0.00976642 0)
(-0.0283336 0.00964426 0)
(-0.0349786 0.0088575 0)
(-0.040813 0.00746802 0)
(-0.0454343 0.00549397 0)
(-0.0484533 0.00295467 0)
(-0.0495119 -7.51102e-05 0)
(-0.0483331 -0.00341482 0)
(-0.0447974 -0.00674662 0)
(-0.0390316 -0.00962052 0)
(-0.0314848 -0.0115143 0)
(-0.022953 -0.0119566 0)
(-0.0145026 -0.0106951 0)
(-0.00727868 -0.00785724 0)
(-0.00231003 -0.00405939 0)
(-0.000253578 -0.000563104 0)
(-0.00082087 0.00333712 0)
(-0.0043773 0.00952073 0)
(-0.0109521 0.0140566 0)
(-0.0191307 0.0167364 0)
(-0.0279686 0.0177813 0)
(-0.0368434 0.0174651 0)
(-0.0452179 0.0159878 0)
(-0.0526017 0.0134505 0)
(-0.058525 0.00988872 0)
(-0.0625216 0.00534258 0)
(-0.0641434 -5.65729e-05 0)
(-0.0630131 -0.00600373 0)
(-0.0589138 -0.0119642 0)
(-0.0519053 -0.0171733 0)
(-0.0424435 -0.0207263 0)
(-0.0314529 -0.0217796 0)
(-0.0202736 -0.0198455 0)
(-0.0104424 -0.0150863 0)
(-0.00345582 -0.00849032 0)
(-0.000427402 -0.00194049 0)
(-0.00104453 0.00593894 0)
(-0.0054714 0.0155782 0)
(-0.0135159 0.0222677 0)
(-0.023378 0.0261022 0)
(-0.033935 0.0275185 0)
(-0.0445076 0.0269432 0)
(-0.05453 0.0246679 0)
(-0.0634875 0.0208318 0)
(-0.070874 0.0154744 0)
(-0.076158 0.00863437 0)
(-0.0787845 0.000472515 0)
(-0.078223 -0.00860354 0)
(-0.0740684 -0.0178421 0)
(-0.0661978 -0.0261195 0)
(-0.054962 -0.032041 0)
(-0.0413525 -0.0342243 0)
(-0.0270219 -0.0317635 0)
(-0.0140585 -0.0247408 0)
(-0.0046615 -0.0145428 0)
(-0.000565795 -0.00385496 0)
(-0.00123709 0.00908568 0)
(-0.00644175 0.0228208 0)
(-0.0158295 0.0319763 0)
(-0.0272545 0.037086 0)
(-0.0394385 0.0389041 0)
(-0.0516714 0.0380678 0)
(-0.063394 0.0349835 0)
(-0.0741041 0.0298248 0)
(-0.083288 0.0226075 0)
(-0.0903586 0.0133211 0)
(-0.0946315 0.0020943 0)
(-0.0953579 -0.0106246 0)
(-0.0918328 -0.0239016 0)
(-0.0835994 -0.0362231 0)
(-0.070744 -0.0455676 0)
(-0.0542137 -0.0497587 0)
(-0.0359878 -0.0471539 0)
(-0.0189111 -0.0375137 0)
(-0.00625993 -0.0226385 0)
(-0.000735519 -0.00637598 0)
(-0.00141157 0.0127232 0)
(-0.00733336 0.0311541 0)
(-0.0179749 0.0430879 0)
(-0.0308775 0.0496174 0)
(-0.0446329 0.0519154 0)
(-0.0585298 0.0508955 0)
(-0.0720533 0.0471067 0)
(-0.0847545 0.0407498 0)
(-0.0961474 0.0317772 0)
(-0.105607 0.0200565 0)
(-0.11231 0.00558457 0)
(-0.11523 -0.0112599 0)
(-0.113249 -0.029447 0)
(-0.105401 -0.0470785 0)
(-0.0912888 -0.0613625 0)
(-0.0716093 -0.0689876 0)
(-0.0485783 -0.0670701 0)
(-0.0259718 -0.0545779 0)
(-0.00867763 -0.0336325 0)
(-0.00101887 -0.00977264 0)
(-0.00157578 0.0168182 0)
(-0.00817506 0.0405116 0)
(-0.0200011 0.0555262 0)
(-0.0342996 0.0636315 0)
(-0.0495533 0.0665267 0)
(-0.065081 0.065475 0)
(-0.0804524 0.0612018 0)
(-0.0953178 0.0539283 0)
(-0.109264 0.0434946 0)
(-0.121668 0.0295542 0)
(-0.13158 0.0118369 0)
(-0.137681 -0.00951044 0)
(-0.138353 -0.0335149 0)
(-0.131963 -0.0579696 0)
(-0.117375 -0.0792152 0)
(-0.0947124 -0.0924274 0)
(-0.0661344 -0.0927775 0)
(-0.0363392 -0.077595 0)
(-0.0124512 -0.0489024 0)
(-0.00152555 -0.0145562 0)
(-0.00173478 0.0213495 0)
(-0.00898418 0.0508429 0)
(-0.0219272 0.0692138 0)
(-0.037507 0.0790339 0)
(-0.0541078 0.0826497 0)
(-0.0711052 0.0817597 0)
(-0.088192 0.0773074 0)
(-0.105165 0.0695324 0)
(-0.121739 0.0581141 0)
(-0.137351 0.042391 0)
(-0.15099 0.0216709 0)
(-0.161088 -0.00433419 0)
(-0.165542 -0.0349293 0)
(-0.161969 -0.0677795 0)
(-0.148281 -0.0983882 0)
(-0.123609 -0.120125 0)
(-0.0894824 -0.1254 0)
(-0.0510951 -0.108563 0)
(-0.0182615 -0.070403 0)
(-0.00242018 -0.0215466 0)
(-0.00189653 0.0263044 0)
(-0.00978358 0.0621035 0)
(-0.023768 0.0840457 0)
(-0.0404484 0.0956495 0)
(-0.0581032 0.100054 0)
(-0.0761833 0.099492 0)
(-0.0945339 0.0951783 0)
(-0.113136 0.0873785 0)
(-0.131889 0.075575 0)
(-0.150371 0.0587053 0)
(-0.167627 0.0355103 0)
(-0.181989 0.00505941 0)
(-0.191025 -0.0324978 0)
(-0.191703 -0.0749975 0)
(-0.180905 -0.117354 0)
(-0.156375 -0.151118 0)
(-0.118183 -0.165252 0)
(-0.0709547 -0.149357 0)
(-0.0269492 -0.100618 0)
(-0.0039698 -0.031976 0)
(-0.00208251 0.0316903 0)
(-0.010634 0.0742618 0)
(-0.0255855 0.0998731 0)
(-0.0430965 0.113176 0)
(-0.0613139 0.118285 0)
(-0.0797746 0.118084 0)
(-0.0984921 0.11412 0)
(-0.117653 0.106704 0)
(-0.137384 0.0951157 0)
(-0.157499 0.0778487 0)
(-0.177265 0.05299 0)
(-0.195173 0.018809 0)
(-0.208795 -0.0253502 0)
(-0.214794 -0.0778939 0)
(-0.209214 -0.133675 0)
(-0.188216 -0.182891 0)
(-0.14953 -0.210913 0)
(-0.0955505 -0.200814 0)
(-0.0394007 -0.142269 0)
(-0.00660036 -0.0476351 0)
(-0.00234669 0.0375714 0)
(-0.0116876 0.0873355 0)
(-0.0275678 0.116506 0)
(-0.0455401 0.131151 0)
(-0.0635888 0.136602 0)
(-0.0813558 0.13653 0)
(-0.0990324 0.132868 0)
(-0.117013 0.126012 0)
(-0.135676 0.115068 0)
(-0.155158 0.0981241 0)
(-0.175136 0.0726298 0)
(-0.194589 0.0360145 0)
(-0.211567 -0.0133626 0)
(-0.222999 -0.0749084 0)
(-0.224633 -0.144192 0)
(-0.211258 -0.211124 0)
(-0.177716 -0.258293 0)
(-0.122356 -0.261334 0)
(-0.0560759 -0.197476 0)
(-0.0109039 -0.0709898 0)
(-0.00281027 0.0441502 0)
(-0.0132723 0.10147 0)
(-0.030135 0.133732 0)
(-0.0480898 0.148928 0)
(-0.0649641 0.153946 0)
(-0.0805768 0.153374 0)
(-0.0953268 0.149578 0)
(-0.109815 0.143074 0)
(-0.124674 0.132871 0)
(-0.140422 0.116776 0)
(-0.157304 0.0917531 0)
(-0.175085 0.0545153 0)
(-0.192778 0.002417 0)
(-0.208264 -0.0652856 0)
(-0.217831 -0.145748 0)
(-0.215667 -0.230148 0)
(-0.193932 -0.30029 0)
(-0.145759 -0.325356 0)
(-0.075979 -0.266 0)
(-0.0174615 -0.105006 0)
(-0.00372741 0.0519278 0)
(-0.0160259 0.117056 0)
(-0.0340588 0.151329 0)
(-0.0513363 0.165641 0)
(-0.0656774 0.168916 0)
(-0.0772847 0.16676 0)
(-0.0868591 0.161957 0)
(-0.0952263 0.155163 0)
(-0.103273 0.145388 0)
(-0.111906 0.130344 0)
(-0.121993 0.106778 0)
(-0.134239 0.0709691 0)
(-0.148923 0.0194628 0)
(-0.165449 -0.0499023 0)
(-0.181576 -0.136526 0)
(-0.192192 -0.234515 0)
(-0.188027 -0.327878 0)
(-0.157193 -0.382862 0)
(-0.0953165 -0.34286 0)
(-0.0263005 -0.152285 0)
(-0.00560842 0.0620071 0)
(-0.021097 0.134879 0)
(-0.0405285 0.168984 0)
(-0.0559885 0.180066 0)
(-0.0658145 0.1797 0)
(-0.0710533 0.174478 0)
(-0.0729076 0.167479 0)
(-0.072492 0.159446 0)
(-0.0709422 0.149466 0)
(-0.0695011 0.135344 0)
(-0.0695801 0.113908 0)
(-0.0727371 0.0813783 0)
(-0.0805064 0.0338876 0)
(-0.0940074 -0.0318465 0)
(-0.113157 -0.117564 0)
(-0.135026 -0.221439 0)
(-0.151181 -0.332935 0)
(-0.146713 -0.421224 0)
(-0.106815 -0.417225 0)
(-0.0358631 -0.213564 0)
(-0.00942087 0.076715 0)
(-0.0303588 0.156184 0)
(-0.0508461 0.185943 0)
(-0.0618979 0.190229 0)
(-0.0638118 0.183803 0)
(-0.0593225 0.173882 0)
(-0.0504216 0.1635 0)
(-0.0385926 0.153328 0)
(-0.0251894 0.142505 0)
(-0.0116652 0.129047 0)
(0.0002445 0.110093 0)
(0.00842355 0.0821604 0)
(0.0104167 0.0414602 0)
(0.0036547 -0.0157795 0)
(-0.0140077 -0.0929825 0)
(-0.0428495 -0.192365 0)
(-0.0779484 -0.31119 0)
(-0.105178 -0.428677 0)
(-0.100636 -0.474111 0)
(-0.0416292 -0.286301 0)
(-0.0167634 0.101045 0)
(-0.0460698 0.182125 0)
(-0.0641733 0.199521 0)
(-0.0640275 0.191946 0)
(-0.0514227 0.176919 0)
(-0.0318832 0.16113 0)
(-0.00829807 0.146864 0)
(0.0175793 0.134352 0)
(0.0443672 0.122636 0)
(0.0706729 0.10994 0)
(0.0947839 0.0938497 0)
(0.114449 0.0714474 0)
(0.126785 0.0394715 0)
(0.128327 -0.00558959 0)
(0.115239 -0.0676474 0)
(0.0840894 -0.151502 0)
(0.0344345 -0.262329 0)
(-0.0252895 -0.395752 0)
(-0.0663072 -0.495463 0)
(-0.0350474 -0.361586 0)
(-0.0289538 0.144962 0)
(-0.0664752 0.209222 0)
(-0.0658306 0.198055 0)
(-0.0376251 0.173428 0)
(0.000947634 0.149706 0)
(0.0424819 0.129467 0)
(0.0844233 0.113067 0)
(0.125582 0.0998853 0)
(0.165182 0.0887073 0)
(0.202415 0.0779516 0)
(0.236068 0.0657437 0)
(0.264232 0.0499417 0)
(0.284112 0.0281783 0)
(0.291936 -0.00215512 0)
(0.282923 -0.0442232 0)
(0.251429 -0.102982 0)
(0.191643 -0.188288 0)
(0.101843 -0.314145 0)
(0.0083402 -0.45591 0)
(-0.00180834 -0.411519 0)
(-0.0317832 0.214264 0)
(-0.0476395 0.213605 0)
(0.0218073 0.156894 0)
(0.102032 0.120105 0)
(0.173609 0.0952786 0)
(0.236432 0.0768954 0)
(0.292242 0.0632358 0)
(0.342139 0.0531072 0)
(0.386871 0.0452552 0)
(0.426788 0.0384482 0)
(0.461584 0.0314759 0)
(0.490074 0.0230986 0)
(0.510037 0.0120278 0)
(0.518077 -0.00310811 0)
(0.509388 -0.0239771 0)
(0.477421 -0.0534556 0)
(0.412801 -0.0993212 0)
(0.301901 -0.184817 0)
(0.154201 -0.324617 0)
(0.0912222 -0.368874 0)
(0.260479 0.131833 0)
(0.320303 0.116466 0)
(0.439974 0.0780676 0)
(0.539597 0.0533556 0)
(0.608979 0.0380107 0)
(0.659755 0.0277112 0)
(0.699613 0.0206402 0)
(0.732065 0.0157895 0)
(0.758999 0.0123808 0)
(0.781498 0.00978952 0)
(0.799886 0.00750311 0)
(0.813716 0.00507402 0)
(0.821759 0.00209264 0)
(0.822019 -0.00183032 0)
(0.811541 -0.007117 0)
(0.786035 -0.014486 0)
(0.737515 -0.025948 0)
(0.651083 -0.0483798 0)
(0.489354 -0.103428 0)
(0.357725 -0.149609 0)
)
;

boundaryField
{
    movingWall
    {
        type            fixedValue;
        value           uniform (1 0 0);
    }
    fixedWalls
    {
        type            noSlip;
    }
    frontAndBack
    {
        type            empty;
    }
}


// ************************************************************************* //
