/*--------------------------------*- C++ -*----------------------------------*\
  =========                 |
  \\      /  F ield         | OpenFOAM: The Open Source CFD Toolbox
   \\    /   O peration     | Website:  https://openfoam.org
    \\  /    A nd           | Version:  6
     \\/     M anipulation  |
\*---------------------------------------------------------------------------*/
FoamFile
{
    version     2.0;
    format      ascii;
    class       surfaceScalarField;
    location    "0.05";
    object      phi;
}
// * * * * * * * * * * * * * * * * * * * * * * * * * * * * * * * * * * * * * //

dimensions      [0 3 -1 0 0 0 0];

internalField   nonuniform List<scalar> 
760
(
1.47875e-08
-1.4811e-08
-2.07592e-08
3.55467e-08
-1.12651e-07
9.18922e-08
-2.44688e-07
1.32037e-07
-3.96768e-07
1.5208e-07
-5.49524e-07
1.52756e-07
-6.86197e-07
1.36673e-07
-7.93502e-07
1.07305e-07
-8.6189e-07
6.83889e-08
-8.85587e-07
2.36977e-08
-8.62577e-07
-2.30096e-08
-7.94626e-07
-6.79511e-08
-6.87352e-07
-1.07275e-07
-5.50298e-07
-1.37054e-07
-3.96915e-07
-1.53383e-07
-2.44234e-07
-1.52681e-07
-1.11896e-07
-1.32339e-07
-2.01235e-08
-9.17723e-08
1.50369e-08
-3.51602e-08
1.50372e-08
-3.28939e-08
1.80829e-08
-1.77514e-07
1.80166e-07
-4.30909e-07
3.45287e-07
-7.62952e-07
4.64081e-07
-1.1335e-06
5.22631e-07
-1.50127e-06
5.20523e-07
-1.82889e-06
4.6429e-07
-2.08573e-06
3.64147e-07
-2.2493e-06
2.31964e-07
-2.30585e-06
8.02417e-08
-2.25058e-06
-7.8277e-08
-2.08782e-06
-2.30707e-07
-1.83105e-06
-3.64047e-07
-1.50275e-06
-4.65358e-07
-1.13383e-06
-5.22307e-07
-7.62143e-07
-5.24364e-07
-4.29482e-07
-4.65e-07
-1.76233e-07
-3.45022e-07
-3.23201e-08
-1.79074e-07
-1.72826e-08
-9.03888e-08
1.08472e-07
-3.53222e-07
4.42999e-07
-7.609e-07
7.52965e-07
-1.26732e-06
9.70498e-07
-1.81736e-06
1.07267e-06
-2.35525e-06
1.05841e-06
-2.83038e-06
9.39428e-07
-3.20107e-06
7.34831e-07
-3.4365e-06
4.67395e-07
-3.51778e-06
1.61519e-07
-3.43833e-06
-1.5772e-07
-3.20413e-06
-4.64907e-07
-2.83368e-06
-7.345e-07
-2.35772e-06
-9.41313e-07
-1.81832e-06
-1.06172e-06
-1.26667e-06
-1.07601e-06
-7.59237e-07
-9.72429e-07
-3.51555e-07
-7.52704e-07
-8.95743e-08
-4.41054e-07
-1.06857e-07
-1.4293e-07
2.51402e-07
-5.2149e-07
8.21559e-07
-1.07898e-06
1.31046e-06
-1.7491e-06
1.64062e-06
-2.46139e-06
1.78496e-06
-3.1479e-06
1.74492e-06
-3.74844e-06
1.53996e-06
-4.21398e-06
1.20038e-06
-4.50861e-06
7.62022e-07
-4.61034e-06
2.63245e-07
-4.51151e-06
-2.56547e-07
-4.21897e-06
-7.57444e-07
-3.75414e-06
-1.19933e-06
-3.1528e-06
-1.54265e-06
-2.46434e-06
-1.75018e-06
-1.74971e-06
-1.79064e-06
-1.07781e-06
-1.64433e-06
-5.19777e-07
-1.31074e-06
-1.4195e-07
-8.18882e-07
-2.48806e-07
-1.91304e-07
4.42705e-07
-6.82428e-07
1.31268e-06
-1.38717e-06
2.0152e-06
-2.2163e-06
2.46975e-06
-3.08266e-06
2.65132e-06
-3.90663e-06
2.56889e-06
-4.62026e-06
2.25359e-06
-5.16966e-06
1.74978e-06
-5.51603e-06
1.10839e-06
-5.63586e-06
3.83075e-07
-5.52092e-06
-3.7148e-07
-5.17832e-06
-1.10005e-06
-4.63069e-06
-1.74696e-06
-3.91652e-06
-2.25681e-06
-3.09006e-06
-2.57664e-06
-2.2202e-06
-2.6605e-06
-1.38786e-06
-2.47668e-06
-6.81355e-07
-2.01724e-06
-1.90334e-07
-1.3099e-06
-4.3914e-07
-2.38432e-07
6.81137e-07
-8.41959e-07
1.91621e-06
-1.69421e-06
2.86746e-06
-2.6809e-06
3.45643e-06
-3.69678e-06
3.66721e-06
-4.65077e-06
3.52288e-06
-5.46859e-06
3.07141e-06
-6.09355e-06
2.37474e-06
-6.48599e-06
1.50083e-06
-6.62231e-06
5.19395e-07
-6.49416e-06
-4.99624e-07
-6.10828e-06
-1.48593e-06
-5.48699e-06
-2.36826e-06
-4.66933e-06
-3.07447e-06
-3.71225e-06
-3.53372e-06
-2.69116e-06
-3.68159e-06
-1.69895e-06
-3.46889e-06
-8.42692e-07
-2.87349e-06
-2.37811e-07
-1.91478e-06
-6.7695e-07
-2.87336e-07
9.68473e-07
-1.00701e-06
2.63588e-06
-2.00973e-06
3.87017e-06
-3.1535e-06
4.60021e-06
-4.31398e-06
4.82769e-06
-5.38925e-06
4.59815e-06
-6.30072e-06
3.98288e-06
-6.99144e-06
3.06546e-06
-7.4233e-06
1.93268e-06
-7.57421e-06
6.70308e-07
-7.43626e-06
-6.3757e-07
-7.01514e-06
-1.90706e-06
-6.33107e-06
-3.05233e-06
-5.4211e-06
-3.98444e-06
-4.34221e-06
-4.6126e-06
-3.17428e-06
-4.84952e-06
-2.02157e-06
-4.62161e-06
-1.01127e-06
-3.88379e-06
-2.876e-07
-2.63846e-06
-9.6455e-07
-3.40855e-07
1.30933e-06
-1.18413e-06
3.47916e-06
-2.34176e-06
5.0278e-06
-3.64045e-06
5.8989e-06
-4.93607e-06
6.1233e-06
-6.11776e-06
5.77984e-06
-7.10597e-06
4.9711e-06
-7.84724e-06
3.80673e-06
-8.30824e-06
2.39368e-06
-8.47059e-06
8.32656e-07
-8.32753e-06
-7.80634e-07
-7.88287e-06
-2.35171e-06
-7.15248e-06
-3.78273e-06
-6.16799e-06
-4.96892e-06
-4.98248e-06
-5.79812e-06
-3.67676e-06
-6.15524e-06
-2.36461e-06
-5.93375e-06
-1.19423e-06
-5.05418e-06
-3.42763e-07
-3.48992e-06
-1.30731e-06
-4.01797e-07
1.71112e-06
-1.37928e-06
4.45664e-06
-2.69573e-06
6.34425e-06
-4.14166e-06
7.34483e-06
-5.55345e-06
7.5351e-06
-6.81522e-06
7.04161e-06
-7.85193e-06
6.00781e-06
-8.61917e-06
4.57396e-06
-9.09286e-06
2.86737e-06
-9.26121e-06
1.00101e-06
-9.11963e-06
-9.22215e-07
-8.66911e-06
-2.80222e-06
-7.91823e-06
-4.53361e-06
-6.88857e-06
-5.99858e-06
-5.62349e-06
-7.0632e-06
-4.19894e-06
-7.57979e-06
-2.7341e-06
-7.39859e-06
-1.39802e-06
-6.39026e-06
-4.06338e-07
-4.4816e-06
-1.71365e-06
-4.73501e-07
2.18462e-06
-1.59834e-06
5.58148e-06
-3.0739e-06
7.81981e-06
-4.64853e-06
8.91946e-06
-6.14149e-06
9.02806e-06
-7.439e-06
8.33912e-06
-8.47913e-06
7.04794e-06
-9.23422e-06
5.32905e-06
-9.69537e-06
3.32851e-06
-9.86097e-06
1.16661e-06
-9.7299e-06
-1.05329e-06
-9.29929e-06
-3.23282e-06
-8.56694e-06
-5.26596e-06
-7.53844e-06
-7.02708e-06
-6.23935e-06
-8.36229e-06
-4.73166e-06
-9.08747e-06
-3.13238e-06
-8.99787e-06
-1.6289e-06
-7.89374e-06
-4.81882e-07
-5.62862e-06
-2.19553e-06
-5.60859e-07
2.74548e-06
-1.84817e-06
6.86879e-06
-3.47467e-06
9.44631e-06
-5.14061e-06
1.05854e-05
-6.6549e-06
1.05423e-05
-7.91805e-06
9.60227e-06
-8.89369e-06
8.02358e-06
-9.58104e-06
6.0164e-06
-9.99329e-06
3.74076e-06
-1.01431e-05
1.3164e-06
-1.00342e-05
-1.16213e-06
-9.65909e-06
-3.60797e-06
-9.001e-06
-5.92405e-06
-8.04269e-06
-7.98539e-06
-6.78153e-06
-9.62345e-06
-5.25239e-06
-1.06166e-05
-3.55696e-06
-1.06933e-05
-1.89368e-06
-9.55702e-06
-5.74452e-07
-6.94784e-06
-2.76998e-06
-6.72018e-07
3.4175e-06
-2.13766e-06
8.33443e-06
-3.89011e-06
1.11988e-05
-5.57915e-06
1.22744e-05
-7.01851e-06
1.19817e-05
-8.14267e-06
1.07264e-05
-8.95766e-06
8.83858e-06
-9.50128e-06
6.56002e-06
-9.81587e-06
4.05535e-06
-9.9319e-06
1.43243e-06
-9.85952e-06
-1.23451e-06
-9.5857e-06
-3.88178e-06
-9.07647e-06
-6.43328e-06
-8.28509e-06
-8.77677e-06
-7.16884e-06
-1.07397e-05
-5.71784e-06
-1.20676e-05
-3.99743e-06
-1.24137e-05
-2.2005e-06
-1.1354e-05
-6.92245e-07
-8.45609e-06
-3.46223e-06
-8.21126e-07
4.23863e-06
-2.47776e-06
9.99106e-06
-4.2991e-06
1.30201e-05
-5.89396e-06
1.38693e-05
-7.11139e-06
1.31991e-05
-7.94932e-06
1.15644e-05
-8.47656e-06
9.36581e-06
-8.78057e-06
6.86404e-06
-8.93755e-06
4.21233e-06
-8.9974e-06
1.49227e-06
-8.97719e-06
-1.25473e-06
-8.85899e-06
-3.99998e-06
-8.5909e-06
-6.70137e-06
-8.09274e-06
-9.27493e-06
-7.27099e-06
-1.15614e-05
-6.05004e-06
-1.32886e-05
-4.42769e-06
-1.40361e-05
-2.55833e-06
-1.32233e-05
-8.4923e-07
-1.01652e-05
-4.31146e-06
-1.03217e-06
5.2708e-06
-2.87695e-06
1.18358e-05
-4.64935e-06
1.47925e-05
-5.9571e-06
1.51771e-05
-6.73989e-06
1.39819e-05
-7.09867e-06
1.19231e-05
-7.1847e-06
9.45184e-06
-7.14057e-06
6.81991e-06
-7.07482e-06
4.14658e-06
-7.05394e-06
1.47139e-06
-7.10092e-06
-1.20775e-06
-7.19486e-06
-3.90604e-06
-7.26988e-06
-6.62635e-06
-7.21513e-06
-9.32968e-06
-6.88191e-06
-1.18947e-05
-6.10942e-06
-1.40611e-05
-4.78693e-06
-1.53586e-05
-2.97159e-06
-1.50387e-05
-1.06873e-06
-1.2068e-05
-5.38019e-06
-1.34098e-06
6.61178e-06
-3.32081e-06
1.38157e-05
-4.81358e-06
1.62853e-05
-5.53143e-06
1.58949e-05
-5.59332e-06
1.40438e-05
-5.24561e-06
1.15754e-05
-4.73029e-06
8.93653e-06
-4.23629e-06
6.32591e-06
-3.89138e-06
3.80168e-06
-3.76855e-06
1.34856e-06
-3.89312e-06
-1.08318e-06
-4.24517e-06
-3.554e-06
-4.75563e-06
-6.11589e-06
-5.29755e-06
-8.78776e-06
-5.67785e-06
-1.15144e-05
-5.64418e-06
-1.40947e-05
-4.93501e-06
-1.60677e-05
-3.41824e-06
-1.65554e-05
-1.38479e-06
-1.41015e-05
-6.76498e-06
-1.77967e-06
8.39145e-06
-3.70225e-06
1.57382e-05
-4.48852e-06
1.70716e-05
-4.17628e-06
1.55827e-05
-3.17769e-06
1.30452e-05
-1.90494e-06
1.03027e-05
-6.67433e-07
7.69902e-06
3.33938e-07
5.32454e-06
9.81589e-07
3.15403e-06
1.21478e-06
1.11537e-06
1.01252e-06
-8.80916e-07
3.88025e-07
-2.92951e-06
-6.04951e-07
-5.12291e-06
-1.85369e-06
-7.53902e-06
-3.15771e-06
-1.02103e-05
-4.20035e-06
-1.30521e-05
-4.55237e-06
-1.57157e-05
-3.77812e-06
-1.73297e-05
-1.82483e-06
-1.60548e-05
-8.58981e-06
-2.29676e-06
1.06882e-05
-3.62681e-06
1.70683e-05
-2.98245e-06
1.64272e-05
-1.09041e-06
1.36906e-05
1.26867e-06
1.06861e-05
3.57394e-06
7.9974e-06
5.53097e-06
5.74199e-06
6.9944e-06
3.8611e-06
7.9013e-06
2.24713e-06
8.2275e-06
7.89167e-07
7.96477e-06
-6.18186e-07
7.11363e-06
-2.07837e-06
5.69013e-06
-3.69941e-06
3.74897e-06
-5.59785e-06
1.42888e-06
-7.89027e-06
-9.76422e-07
-1.06468e-05
-2.93484e-06
-1.37573e-05
-3.63877e-06
-1.66258e-05
-2.32673e-06
-1.73668e-05
-1.09165e-05
-2.50251e-06
1.31907e-05
-1.9361e-06
1.65019e-05
1.19326e-06
1.32978e-05
5.11729e-06
9.76658e-06
8.85279e-06
6.95065e-06
1.19937e-05
4.85647e-06
1.44174e-05
3.31833e-06
1.61215e-05
2.15698e-06
1.714e-05
1.22865e-06
1.75031e-05
4.26019e-07
1.72212e-05
-3.36197e-07
1.62793e-05
-1.13656e-06
1.46415e-05
-2.06161e-06
1.22655e-05
-3.22176e-06
9.14228e-06
-4.76709e-06
5.38383e-06
-6.88833e-06
1.39305e-06
-9.76651e-06
-1.83168e-06
-1.3401e-05
-2.48283e-06
-1.67157e-05
-1.33994e-05
-5.77736e-07
1.37685e-05
4.63785e-06
1.12863e-05
1.10742e-05
6.86146e-06
1.66512e-05
4.18959e-06
2.09802e-05
2.62166e-06
2.41682e-05
1.66849e-06
2.64191e-05
1.06746e-06
2.7912e-05
6.6407e-07
2.87729e-05
3.67693e-07
2.90746e-05
1.24294e-07
2.88409e-05
-1.02499e-07
2.80483e-05
-3.43916e-07
2.6623e-05
-6.36329e-07
2.44353e-05
-1.03402e-06
2.12972e-05
-1.629e-06
1.69897e-05
-2.58085e-06
1.13879e-05
-4.16471e-06
4.87114e-06
-6.88426e-06
-4.69142e-07
-1.13754e-05
-1.38685e-05
1.37685e-05
2.50548e-05
3.19162e-05
3.61058e-05
3.87275e-05
4.0396e-05
4.14634e-05
4.21275e-05
4.24952e-05
4.26195e-05
4.2517e-05
4.21731e-05
4.15367e-05
4.05027e-05
3.88737e-05
3.62929e-05
3.21282e-05
2.52439e-05
1.38685e-05
)
;

boundaryField
{
    movingWall
    {
        type            calculated;
        value           uniform 0;
    }
    fixedWalls
    {
        type            calculated;
        value           uniform 0;
    }
    frontAndBack
    {
        type            empty;
        value           nonuniform 0();
    }
}


// ************************************************************************* //
