/*--------------------------------*- C++ -*----------------------------------*\
  =========                 |
  \\      /  F ield         | OpenFOAM: The Open Source CFD Toolbox
   \\    /   O peration     | Website:  https://openfoam.org
    \\  /    A nd           | Version:  6
     \\/     M anipulation  |
\*---------------------------------------------------------------------------*/
FoamFile
{
    version     2.0;
    format      ascii;
    class       surfaceScalarField;
    location    "0.155";
    object      phi;
}
// * * * * * * * * * * * * * * * * * * * * * * * * * * * * * * * * * * * * * //

dimensions      [0 3 -1 0 0 0 0];

internalField   nonuniform List<scalar> 
760
(
-1.04873e-09
1.0489e-09
-3.98908e-08
3.8842e-08
-1.07353e-07
6.74619e-08
-1.88678e-07
8.13256e-08
-2.73004e-07
8.43252e-08
-3.53162e-07
8.01581e-08
-4.24371e-07
7.12089e-08
-4.83047e-07
5.8676e-08
-5.26014e-07
4.29669e-08
-5.50183e-07
2.41699e-08
-5.52641e-07
2.4577e-09
-5.31055e-07
-2.15861e-08
-4.8437e-07
-4.66852e-08
-4.13736e-07
-7.06336e-08
-3.2356e-07
-9.01763e-08
-2.22402e-07
-1.01157e-07
-1.23289e-07
-9.91139e-08
-4.30132e-08
-8.02754e-08
4.34533e-10
-4.34478e-08
4.34497e-10
-3.94415e-08
4.04904e-08
-1.5148e-07
1.5088e-07
-3.15215e-07
2.31197e-07
-5.05551e-07
2.71662e-07
-7.01245e-07
2.80019e-07
-8.86535e-07
2.65448e-07
-1.05001e-06
2.34686e-07
-1.18293e-06
1.9159e-07
-1.27789e-06
1.37934e-07
-1.32831e-06
7.45856e-08
-1.32848e-06
2.62502e-09
-1.27436e-06
-7.57e-08
-1.1649e-06
-1.56147e-07
-1.00372e-06
-2.31819e-07
-8.0098e-07
-2.92912e-07
-5.74837e-07
-3.273e-07
-3.51476e-07
-3.22475e-07
-1.62714e-07
-2.69038e-07
-3.95343e-08
-1.66628e-07
-3.90998e-08
-7.32339e-08
1.13724e-07
-2.47915e-07
3.25561e-07
-4.86929e-07
4.7021e-07
-7.57077e-07
5.41811e-07
-1.03125e-06
5.54195e-07
-1.28903e-06
5.23222e-07
-1.51525e-06
4.60909e-07
-1.69814e-06
3.7448e-07
-1.8278e-06
2.67593e-07
-1.89552e-06
1.42306e-07
-1.89392e-06
1.02325e-09
-1.81785e-06
-1.51773e-07
-1.66603e-06
-3.07967e-07
-1.44327e-06
-4.54575e-07
-1.1629e-06
-5.73282e-07
-8.48594e-07
-6.41606e-07
-5.34449e-07
-6.36619e-07
-2.61887e-07
-5.416e-07
-7.25505e-08
-3.55965e-07
-1.1165e-07
-9.7858e-08
2.11582e-07
-3.22899e-07
5.50603e-07
-6.22666e-07
7.69977e-07
-9.5567e-07
8.74815e-07
-1.29022e-06
8.88743e-07
-1.60308e-06
8.36087e-07
-1.87718e-06
7.35007e-07
-2.09917e-06
5.96465e-07
-2.25767e-06
4.26093e-07
-2.34243e-06
2.27069e-07
-2.34439e-06
2.98773e-09
-2.25669e-06
-2.39472e-07
-2.07661e-06
-4.88053e-07
-1.80838e-06
-7.22805e-07
-1.46651e-06
-9.15153e-07
-1.07854e-06
-1.02957e-06
-6.85753e-07
-1.02941e-06
-3.39869e-07
-8.87484e-07
-9.52725e-08
-6.00561e-07
-2.06923e-07
-1.16861e-07
3.28443e-07
-3.83763e-07
8.17505e-07
-7.35371e-07
1.12159e-06
-1.12226e-06
1.2617e-06
-1.50864e-06
1.27512e-06
-1.86939e-06
1.19683e-06
-2.18648e-06
1.0521e-06
-2.44588e-06
8.55863e-07
-2.63526e-06
6.15481e-07
-2.7429e-06
3.34701e-07
-2.75749e-06
1.75845e-08
-2.66925e-06
-3.27713e-07
-2.47216e-06
-6.85145e-07
-2.1677e-06
-1.02726e-06
-1.76964e-06
-1.31321e-06
-1.30867e-06
-1.49054e-06
-8.3451e-07
-1.50357e-06
-4.12658e-07
-1.30934e-06
-1.13977e-07
-8.99243e-07
-3.209e-07
-1.33785e-07
4.62229e-07
-4.39337e-07
1.12306e-06
-8.39797e-07
1.52205e-06
-1.27812e-06
1.70003e-06
-1.71474e-06
1.71174e-06
-2.12316e-06
1.60525e-06
-2.48515e-06
1.41409e-06
-2.78659e-06
1.15731e-06
-3.0146e-06
8.43492e-07
-3.15585e-06
4.75951e-07
-3.19609e-06
5.78202e-08
-3.12099e-06
-4.0281e-07
-2.91881e-06
-8.87331e-07
-2.5852e-06
-1.36087e-06
-2.13035e-06
-1.76806e-06
-1.58681e-06
-2.03408e-06
-1.01477e-06
-2.07561e-06
-4.99275e-07
-1.82483e-06
-1.34974e-07
-1.26354e-06
-4.55874e-07
-1.51402e-07
6.13631e-07
-4.9715e-07
1.4688e-06
-9.48543e-07
1.97344e-06
-1.44075e-06
2.19224e-06
-1.93062e-06
2.2016e-06
-2.39086e-06
2.06549e-06
-2.80376e-06
1.82699e-06
-3.15588e-06
1.50943e-06
-3.43433e-06
1.12194e-06
-3.62432e-06
6.65945e-07
-3.70806e-06
1.41554e-07
-3.66501e-06
-4.45862e-07
-3.47456e-06
-1.07777e-06
-3.1221e-06
-1.71332e-06
-2.60918e-06
-2.28099e-06
-1.96676e-06
-2.6765e-06
-1.26674e-06
-2.77564e-06
-6.2211e-07
-2.46946e-06
-1.649e-07
-1.72075e-06
-6.20774e-07
-1.71777e-07
7.85408e-07
-5.62989e-07
1.86002e-06
-1.07112e-06
2.48157e-06
-1.62276e-06
2.74388e-06
-2.1713e-06
2.75014e-06
-2.68941e-06
2.5836e-06
-3.16091e-06
2.29849e-06
-3.57421e-06
1.92272e-06
-3.91745e-06
1.46518e-06
-4.1752e-06
9.237e-07
-4.32613e-06
2.92484e-07
-4.34213e-06
-4.29861e-07
-4.19018e-06
-1.22973e-06
-3.83903e-06
-2.06447e-06
-3.27313e-06
-2.84688e-06
-2.5139e-06
-3.43573e-06
-1.64296e-06
-3.64658e-06
-8.1174e-07
-3.30068e-06
-2.12779e-07
-2.31972e-06
-8.33553e-07
-1.96571e-07
9.81979e-07
-6.41413e-07
2.30486e-06
-1.21456e-06
3.05471e-06
-1.83252e-06
3.36184e-06
-2.44541e-06
3.36304e-06
-3.0269e-06
3.16508e-06
-3.56384e-06
2.83543e-06
-4.04813e-06
2.40701e-06
-4.47085e-06
1.8879e-06
-4.81769e-06
1.27054e-06
-5.065e-06
5.39802e-07
-5.17679e-06
-3.18079e-07
-5.10426e-06
-1.30225e-06
-4.79178e-06
-2.37695e-06
-4.19389e-06
-3.44477e-06
-3.30738e-06
-4.32224e-06
-2.21421e-06
-4.73975e-06
-1.11327e-06
-4.40162e-06
-2.92994e-07
-3.13999e-06
-1.12655e-06
-2.2756e-07
1.20954e-06
-7.36844e-07
2.81414e-06
-1.38474e-06
3.70261e-06
-2.07553e-06
4.05264e-06
-2.75639e-06
4.04389e-06
-3.40343e-06
3.81212e-06
-4.00844e-06
3.44044e-06
-4.56908e-06
2.96765e-06
-5.08198e-06
2.4008e-06
-5.53699e-06
1.72554e-06
-5.9111e-06
9.1392e-07
-6.16216e-06
-6.70237e-08
-6.22415e-06
-1.24027e-06
-6.00953e-06
-2.59157e-06
-5.42722e-06
-4.02708e-06
-4.42598e-06
-5.32348e-06
-3.06539e-06
-6.10034e-06
-1.59013e-06
-5.87687e-06
-4.28827e-07
-4.3013e-06
-1.55537e-06
-2.67384e-07
1.47692e-06
-8.55029e-07
3.40179e-06
-1.58804e-06
4.43561e-06
-2.35571e-06
4.82032e-06
-3.10305e-06
4.79123e-06
-3.81062e-06
4.51969e-06
-4.47733e-06
4.10715e-06
-5.10903e-06
3.59936e-06
-5.71098e-06
3.00275e-06
-6.28114e-06
2.29571e-06
-6.80204e-06
1.43482e-06
-7.23019e-06
3.61131e-07
-7.48521e-06
-9.8525e-07
-7.4449e-06
-2.63188e-06
-6.9592e-06
-4.51279e-06
-5.90075e-06
-6.38193e-06
-4.26665e-06
-7.73443e-06
-2.31767e-06
-7.82586e-06
-6.55864e-07
-5.9631e-06
-2.21124e-06
-3.20695e-07
1.79762e-06
-1.00494e-06
4.08603e-06
-1.83285e-06
5.26353e-06
-2.6758e-06
5.66327e-06
-3.47853e-06
5.59397e-06
-4.22874e-06
5.26989e-06
-4.93462e-06
4.81303e-06
-5.61219e-06
4.27693e-06
-6.27786e-06
3.66842e-06
-6.94168e-06
2.95952e-06
-7.59769e-06
2.09083e-06
-8.20957e-06
9.73012e-07
-8.69254e-06
-5.02287e-07
-8.89823e-06
-2.42619e-06
-8.61748e-06
-4.79353e-06
-7.62608e-06
-7.37333e-06
-5.80515e-06
-9.55536e-06
-3.35418e-06
-1.02768e-05
-1.02357e-06
-8.29372e-06
-3.23481e-06
-3.96172e-07
2.19379e-06
-1.20133e-06
4.89119e-06
-2.13055e-06
6.19274e-06
-3.03553e-06
6.56825e-06
-3.86543e-06
6.42387e-06
-4.61896e-06
6.02342e-06
-5.31554e-06
5.50961e-06
-5.98211e-06
4.9435e-06
-6.64702e-06
4.33333e-06
-7.33457e-06
3.64708e-06
-8.0558e-06
2.81206e-06
-8.79252e-06
1.70973e-06
-9.47415e-06
1.79344e-07
-9.95189e-06
-1.94845e-06
-9.98327e-06
-4.76215e-06
-9.25353e-06
-8.10307e-06
-7.48075e-06
-1.13281e-05
-4.67495e-06
-1.30826e-05
-1.58708e-06
-1.13816e-05
-4.82188e-06
-5.10365e-07
2.70416e-06
-1.46833e-06
5.84916e-06
-2.49424e-06
7.21866e-06
-3.42421e-06
7.49821e-06
-4.22259e-06
7.22225e-06
-4.90574e-06
6.70656e-06
-5.50648e-06
6.11035e-06
-6.06228e-06
5.4993e-06
-6.61175e-06
4.88281e-06
-7.19231e-06
4.22763e-06
-7.8342e-06
3.45396e-06
-8.54769e-06
2.42322e-06
-9.30046e-06
9.32109e-07
-9.98521e-06
-1.2637e-06
-1.0383e-05
-4.36433e-06
-1.01401e-05
-8.34598e-06
-8.80697e-06
-1.26613e-05
-6.06435e-06
-1.58252e-05
-2.36585e-06
-1.50801e-05
-7.18773e-06
-6.95279e-07
3.39943e-06
-1.8434e-06
6.99728e-06
-2.93005e-06
8.30531e-06
-3.79804e-06
8.3662e-06
-4.4514e-06
7.87562e-06
-4.93634e-06
7.1915e-06
-5.30348e-06
6.47749e-06
-5.60062e-06
5.79644e-06
-5.87352e-06
5.1557e-06
-6.16791e-06
4.52202e-06
-6.52986e-06
3.81591e-06
-7.00156e-06
2.89491e-06
-7.60769e-06
1.53825e-06
-8.32618e-06
-5.45215e-07
-9.03632e-06
-3.65418e-06
-9.44303e-06
-7.93927e-06
-9.0041e-06
-1.31002e-05
-7.00711e-06
-1.78222e-05
-3.24479e-06
-1.88424e-05
-1.04325e-05
-1.01173e-06
4.41116e-06
-2.37505e-06
8.3606e-06
-3.40072e-06
9.33098e-06
-4.0141e-06
8.97958e-06
-4.31008e-06
8.17159e-06
-4.38637e-06
7.2678e-06
-4.31957e-06
6.41069e-06
-4.16916e-06
5.64603e-06
-3.98455e-06
4.97109e-06
-3.81243e-06
4.34991e-06
-3.70487e-06
3.70835e-06
-3.72675e-06
2.91679e-06
-3.95823e-06
1.76972e-06
-4.48126e-06
-2.21812e-08
-5.33133e-06
-2.80412e-06
-6.3873e-06
-6.88329e-06
-7.17738e-06
-1.23102e-05
-6.69917e-06
-1.83004e-05
-3.85524e-06
-2.16863e-05
-1.42878e-05
-1.56485e-06
5.97601e-06
-3.06584e-06
9.8616e-06
-3.67919e-06
9.94433e-06
-3.62848e-06
8.92887e-06
-3.19073e-06
7.73384e-06
-2.54071e-06
6.61778e-06
-1.78406e-06
5.65404e-06
-9.87377e-07
4.84935e-06
-1.95589e-07
4.1793e-06
5.54292e-07
3.60002e-06
1.21846e-06
3.04418e-06
1.72908e-06
2.40618e-06
1.97611e-06
1.52269e-06
1.79756e-06
1.56375e-07
1.00042e-06
-2.00698e-06
-5.42318e-07
-5.34056e-06
-2.63419e-06
-1.02183e-05
-4.27935e-06
-1.66553e-05
-3.5668e-06
-2.23989e-05
-1.78546e-05
-2.47099e-06
8.447e-06
-3.48103e-06
1.08716e-05
-2.74962e-06
9.21293e-06
-1.26481e-06
7.44406e-06
4.46249e-07
6.02278e-06
2.17386e-06
4.89017e-06
3.82976e-06
3.99813e-06
5.37507e-06
3.30405e-06
6.79463e-06
2.75974e-06
8.0796e-06
2.31505e-06
9.21008e-06
1.9137e-06
1.01347e-05
1.4816e-06
1.07448e-05
9.12571e-07
1.08473e-05
5.38822e-08
1.01495e-05
-1.30924e-06
8.29491e-06
-3.48594e-06
5.05675e-06
-6.98012e-06
9.77541e-07
-1.25761e-05
-1.65342e-06
-1.97679e-05
-1.9508e-05
-2.87968e-06
1.13267e-05
-5.27795e-07
8.51974e-06
3.357e-06
5.32813e-06
6.99602e-06
3.80504e-06
1.01593e-05
2.85949e-06
1.28838e-05
2.16565e-06
1.52203e-05
1.66167e-06
1.72229e-05
1.30141e-06
1.89436e-05
1.03903e-06
2.04211e-05
8.37592e-07
2.16698e-05
6.65019e-07
2.26651e-05
4.86321e-07
2.33207e-05
2.56918e-07
2.34577e-05
-8.31046e-08
2.27655e-05
-6.17081e-07
2.07635e-05
-1.48388e-06
1.68075e-05
-3.0241e-06
1.04453e-05
-6.21395e-06
2.98716e-06
-1.23098e-05
-1.65208e-05
1.13267e-05
1.98464e-05
2.51746e-05
2.89796e-05
3.18391e-05
3.40047e-05
3.56664e-05
3.69678e-05
3.80068e-05
3.88444e-05
3.95095e-05
3.99958e-05
4.02527e-05
4.01696e-05
3.95525e-05
3.80686e-05
3.50445e-05
2.88306e-05
1.65208e-05
)
;

boundaryField
{
    movingWall
    {
        type            calculated;
        value           uniform 0;
    }
    fixedWalls
    {
        type            calculated;
        value           uniform 0;
    }
    frontAndBack
    {
        type            empty;
        value           nonuniform 0();
    }
}


// ************************************************************************* //
