/*--------------------------------*- C++ -*----------------------------------*\
  =========                 |
  \\      /  F ield         | OpenFOAM: The Open Source CFD Toolbox
   \\    /   O peration     | Website:  https://openfoam.org
    \\  /    A nd           | Version:  6
     \\/     M anipulation  |
\*---------------------------------------------------------------------------*/
FoamFile
{
    version     2.0;
    format      ascii;
    class       volScalarField;
    location    "0.05";
    object      p;
}
// * * * * * * * * * * * * * * * * * * * * * * * * * * * * * * * * * * * * * //

dimensions      [0 2 -2 0 0 0 0];

internalField   nonuniform List<scalar> 
400
(
4.90055e-08
-0.00165801
-0.00329273
-0.00405648
-0.00359493
-0.00181114
0.0012265
0.00534591
0.0103121
0.0158469
0.021638
0.0273446
0.0326082
0.0370707
0.0404064
0.0423712
0.0428695
0.0420303
0.0402911
0.0385841
0.00163984
-6.79015e-05
-0.00130474
-0.00168107
-0.00106197
0.000630637
0.00336262
0.00700822
0.0113801
0.0162449
0.0213328
0.0263472
0.0309782
0.0349234
0.0379166
0.0397689
0.0404217
0.0399792
0.0386487
0.0368985
0.00338067
0.00106411
-0.000289699
-0.000600631
4.62703e-05
0.0016805
0.00426464
0.00768558
0.011778
0.0163335
0.0211067
0.0258243
0.0301982
0.0339453
0.0368138
0.0386195
0.0392942
0.0388928
0.0374111
0.0350285
0.00447351
0.00137571
-0.000332178
-0.000748032
-0.000134032
0.00148861
0.0040631
0.00747014
0.0115489
0.0161002
0.0208877
0.0256435
0.030079
0.0339028
0.0368451
0.0386927
0.0393427
0.0387977
0.0368945
0.0336753
0.00453953
0.000644359
-0.00147749
-0.00203841
-0.00144666
0.000231467
0.00291649
0.00647604
0.0107456
0.0155265
0.0205819
0.025638
0.0303913
0.0345244
0.0377281
0.0397392
0.0404047
0.0396745
0.0372588
0.0331394
0.00331959
-0.0014096
-0.00397552
-0.00467757
-0.00405964
-0.00223132
0.000702686
0.0045924
0.00926435
0.0145149
0.0201003
0.0257328
0.031083
0.0357913
0.0394892
0.0418404
0.0426218
0.0417201
0.0387223
0.0335876
0.000581422
-0.00507859
-0.00812087
-0.00893388
-0.00821119
-0.00611145
-0.0027692
0.00164392
0.0069426
0.0129161
0.0193118
0.025824
0.0320899
0.0376943
0.0421874
0.0451309
0.0461998
0.04519
0.0415309
0.0351628
-0.0039509
-0.0107051
-0.0142614
-0.0151285
-0.0141909
-0.0116715
-0.00774209
-0.00259969
0.00355863
0.0105176
0.0180191
0.0257425
0.0332903
0.0401824
0.0458653
0.049761
0.0513945
0.0504159
0.0460135
0.0380742
-0.0106617
-0.0187384
-0.0228436
-0.0236702
-0.0223666
-0.0192458
-0.0145279
-0.00843797
-0.0011816
0.00702946
0.0159429
0.0252355
0.0344842
0.0431435
0.0505369
0.0559002
0.0585382
0.0578617
0.0526647
0.042694
-0.0201101
-0.0297935
-0.0344528
-0.0350764
-0.0331906
-0.0292374
-0.0234981
-0.0162281
-0.00763365
0.00209119
0.0127205
0.0239537
0.0353681
0.0463697
0.0561513
0.0637145
0.0680488
0.0681773
0.0622446
0.0496811
-0.0331183
-0.0447244
-0.049855
-0.0499849
-0.0471881
-0.0420888
-0.035044
-0.0263377
-0.0161657
-0.00468321
0.00794113
0.0214709
0.0355337
0.0495339
0.0625557
0.0733328
0.0804271
0.0822579
0.075913
0.0601676
-0.0509127
-0.0647302
-0.0700442
-0.0691466
-0.0649112
-0.0582095
-0.049484
-0.0390407
-0.0270473
-0.0135929
0.00125141
0.0173731
0.0345296
0.0522158
0.0694854
0.0848196
0.0962519
0.101313
0.0954198
0.0760618
-0.0753746
-0.0915157
-0.0962809
-0.0933733
-0.0868267
-0.0778254
-0.0668902
-0.0543279
-0.0402507
-0.0246473
-0.00744151
0.0114522
0.0320311
0.0540285
0.076632
0.0981913
0.116188
0.126954
0.123386
0.100563
-0.109543
-0.12754
-0.130086
-0.123378
-0.113079
-0.100707
-0.0868044
-0.0716238
-0.0551708
-0.0372845
-0.0176834
0.00399915
0.0281297
0.054877
0.0838344
0.113516
0.14103
0.161309
0.163731
0.139101
-0.158672
-0.176381
-0.173062
-0.159371
-0.143031
-0.125722
-0.10784
-0.0894464
-0.0703337
-0.0501091
-0.0282135
-0.0039168
0.0236409
0.0552783
0.0913547
0.131075
0.17173
0.207083
0.222242
0.200993
-0.23226
-0.2431
-0.226375
-0.200342
-0.174583
-0.1503
-0.127314
-0.105194
-0.083305
-0.0608766
-0.036978
-0.0104422
0.020175
0.0565185
0.100098
0.151547
0.209424
0.267412
0.30689
0.301664
-0.348041
-0.334274
-0.289833
-0.243369
-0.203744
-0.170271
-0.141366
-0.115487
-0.0911761
-0.0670696
-0.0417519
-0.0135665
0.0195569
0.0602011
0.111373
0.176
0.255434
0.345544
0.427945
0.466074
-0.547062
-0.457451
-0.358082
-0.280965
-0.223324
-0.179571
-0.145336
-0.11694
-0.0915643
-0.0670444
-0.0414421
-0.0126472
0.0219853
0.0659977
0.124194
0.20273
0.307681
0.441629
0.600403
0.746293
-0.942913
-0.614899
-0.401686
-0.286748
-0.214751
-0.166131
-0.131909
-0.105512
-0.0826314
-0.0605247
-0.0370594
-0.0100357
0.0233668
0.0672462
0.127975
0.21548
0.343459
0.532782
0.836684
1.26619
-1.64982
-0.760577
-0.362664
-0.223725
-0.158313
-0.120699
-0.0975262
-0.0806284
-0.0653956
-0.0494779
-0.0313373
-0.00940628
0.018487
0.055838
0.108838
0.18919
0.319403
0.553593
1.06676
2.07034
)
;

boundaryField
{
    movingWall
    {
        type            zeroGradient;
    }
    fixedWalls
    {
        type            zeroGradient;
    }
    frontAndBack
    {
        type            empty;
    }
}


// ************************************************************************* //
