/*--------------------------------*- C++ -*----------------------------------*\
  =========                 |
  \\      /  F ield         | OpenFOAM: The Open Source CFD Toolbox
   \\    /   O peration     | Website:  https://openfoam.org
    \\  /    A nd           | Version:  6
     \\/     M anipulation  |
\*---------------------------------------------------------------------------*/
FoamFile
{
    version     2.0;
    format      ascii;
    class       volVectorField;
    location    "0.05";
    object      U;
}
// * * * * * * * * * * * * * * * * * * * * * * * * * * * * * * * * * * * * * //

dimensions      [0 1 -1 0 0 0 0];

internalField   nonuniform List<vector> 
400
(
(0.000114089 -0.000112912 0)
(-0.000152665 0.000201347 0)
(-0.00131296 0.000509808 0)
(-0.00308763 0.000690022 0)
(-0.00514687 0.000752409 0)
(-0.00722677 0.000724609 0)
(-0.00912559 0.000631943 0)
(-0.0106955 0.000494137 0)
(-0.0118321 0.000325122 0)
(-0.0124632 0.000134899 0)
(-0.0125433 -6.79326e-05 0)
(-0.0120531 -0.00027371 0)
(-0.0110045 -0.000469592 0)
(-0.00945093 -0.000637961 0)
(-0.00749896 -0.00075569 0)
(-0.00532004 -0.000795016 0)
(-0.00315448 -0.00072696 0)
(-0.00130551 -0.000527358 0)
(-0.000123362 -0.000197484 0)
(0.00012747 0.000123501 0)
(-0.000183571 0.000135011 0)
(-0.00157846 0.00158956 0)
(-0.00476287 0.00289523 0)
(-0.00911998 0.00368105 0)
(-0.0140134 0.00395084 0)
(-0.0189119 0.00379253 0)
(-0.0233749 0.00330595 0)
(-0.0270608 0.00257971 0)
(-0.0297204 0.00168443 0)
(-0.0311822 0.00067673 0)
(-0.0313416 -0.000391992 0)
(-0.0301615 -0.0014657 0)
(-0.0276818 -0.00247495 0)
(-0.0240376 -0.00333093 0)
(-0.0194806 -0.00392455 0)
(-0.0143957 -0.00413395 0)
(-0.00929486 -0.00384436 0)
(-0.00478348 -0.00298183 0)
(-0.00154005 -0.00158823 0)
(-0.000162476 -9.9334e-05 0)
(-0.000500164 0.00127195 0)
(-0.00300531 0.00479423 0)
(-0.00800747 0.0076959 0)
(-0.0144925 0.00943342 0)
(-0.0215894 0.00999689 0)
(-0.0286073 0.00955143 0)
(-0.0349619 0.00830866 0)
(-0.0401916 0.00647036 0)
(-0.0439563 0.00420772 0)
(-0.0460205 0.00166503 0)
(-0.0462414 -0.00102366 0)
(-0.0445694 -0.00371388 0)
(-0.04106 -0.00623171 0)
(-0.0358979 -0.00836169 0)
(-0.0294234 -0.00984757 0)
(-0.0221524 -0.0104137 0)
(-0.0147638 -0.00981393 0)
(-0.00805231 -0.00791131 0)
(-0.00295502 -0.00481223 0)
(-0.000469819 -0.00120116 0)
(-0.000746732 0.00314294 0)
(-0.00421844 0.00951371 0)
(-0.0108705 0.0144019 0)
(-0.0192597 0.0172421 0)
(-0.0282723 0.0180728 0)
(-0.0370836 0.0171726 0)
(-0.0450073 0.0148938 0)
(-0.0515048 0.0115771 0)
(-0.0561802 0.00751737 0)
(-0.0587582 0.00296707 0)
(-0.0590682 -0.00183751 0)
(-0.0570442 -0.00664259 0)
(-0.0527404 -0.011145 0)
(-0.0463598 -0.014972 0)
(-0.038291 -0.0176835 0)
(-0.0291373 -0.0188095 0)
(-0.0197086 -0.0179321 0)
(-0.010976 -0.0148122 0)
(-0.00416057 -0.00957067 0)
(-0.000703899 -0.0030221 0)
(-0.000950192 0.00560637 0)
(-0.00530444 0.0155582 0)
(-0.0135328 0.0227946 0)
(-0.0237565 0.0268429 0)
(-0.034599 0.0278766 0)
(-0.045099 0.0263452 0)
(-0.0544836 0.0227796 0)
(-0.0621597 0.0176838 0)
(-0.0676972 0.0114908 0)
(-0.0707953 0.00456982 0)
(-0.0712595 -0.00273537 0)
(-0.068999 -0.0100555 0)
(-0.0640455 -0.0169469 0)
(-0.0565916 -0.022859 0)
(-0.0470428 -0.0271349 0)
(-0.0360668 -0.0290636 0)
(-0.0246007 -0.0279966 0)
(-0.0138184 -0.0235251 0)
(-0.00527719 -0.0157101 0)
(-0.000898052 -0.00542668 0)
(-0.00114711 0.00861804 0)
(-0.00639741 0.0229075 0)
(-0.0162608 0.0328913 0)
(-0.0283962 0.038265 0)
(-0.0411362 0.0394285 0)
(-0.0533715 0.0370766 0)
(-0.064248 0.0319701 0)
(-0.0731332 0.0248058 0)
(-0.0795796 0.0161678 0)
(-0.0832718 0.00654286 0)
(-0.0839919 -0.00362295 0)
(-0.0816125 -0.01385 0)
(-0.0761185 -0.0235521 0)
(-0.067659 -0.0319833 0)
(-0.0566234 -0.0382303 0)
(-0.0437227 -0.0412757 0)
(-0.0300273 -0.0401533 0)
(-0.0169574 -0.0341871 0)
(-0.00648656 -0.0232954 0)
(-0.00109797 -0.00839769 0)
(-0.00137071 0.0122141 0)
(-0.00763235 0.031668 0)
(-0.0193305 0.0448397 0)
(-0.0335915 0.0516596 0)
(-0.0484132 0.0528594 0)
(-0.0625264 0.049472 0)
(-0.0750035 0.0425531 0)
(-0.0851911 0.0330286 0)
(-0.092644 0.0216446 0)
(-0.0970465 0.00899856 0)
(-0.0981597 -0.00437822 0)
(-0.0958062 -0.0179144 0)
(-0.0898949 -0.0308903 0)
(-0.080489 -0.0423528 0)
(-0.0679147 -0.0510862 0)
(-0.0528915 -0.0556793 0)
(-0.03662 -0.0547232 0)
(-0.020816 -0.0471354 0)
(-0.00798805 -0.0325814 0)
(-0.00134946 -0.0120269 0)
(-0.00165222 0.0165039 0)
(-0.00913994 0.0420742 0)
(-0.0230067 0.0589135 0)
(-0.0397184 0.0672791 0)
(-0.0568764 0.0683721 0)
(-0.0730447 0.063684 0)
(-0.0872415 0.0546477 0)
(-0.0988237 0.0424611 0)
(-0.10738 0.0280408 0)
(-0.11262 0.0120784 0)
(-0.11429 -0.00484201 0)
(-0.112155 -0.0220941 0)
(-0.106013 -0.0388521 0)
(-0.0957845 -0.053956 0)
(-0.0816627 -0.065841 0)
(-0.0643085 -0.0725922 0)
(-0.0450205 -0.0721842 0)
(-0.0258491 -0.0629188 0)
(-0.0100013 -0.0440339 0)
(-0.00170244 -0.0165184 0)
(-0.00202447 0.0216686 0)
(-0.0110513 0.0544858 0)
(-0.0275373 0.0754986 0)
(-0.0470925 0.0854446 0)
(-0.0668441 0.0861915 0)
(-0.0851962 0.0798521 0)
(-0.101155 0.0683418 0)
(-0.11414 0.0531795 0)
(-0.123828 0.0354566 0)
(-0.12999 0.0159289 0)
(-0.132387 -0.00481806 0)
(-0.130718 -0.0261643 0)
(-0.124641 -0.0472335 0)
(-0.113863 -0.0666843 0)
(-0.0983413 -0.0825682 0)
(-0.0785624 -0.0923404 0)
(-0.0558322 -0.0931248 0)
(-0.0325363 -0.0822917 0)
(-0.0127777 -0.0583494 0)
(-0.00221804 -0.0222032 0)
(-0.00252782 0.0279651 0)
(-0.0135089 0.0693785 0)
(-0.033152 0.0950546 0)
(-0.0559388 0.106477 0)
(-0.0784378 0.106474 0)
(-0.0989313 0.0980022 0)
(-0.116491 0.0835922 0)
(-0.130689 0.0651373 0)
(-0.141364 0.0438994 0)
(-0.148418 0.0206529 0)
(-0.151664 -0.00409025 0)
(-0.150755 -0.0298089 0)
(-0.145181 -0.0556707 0)
(-0.134366 -0.0802231 0)
(-0.117896 -0.101136 0)
(-0.0959027 -0.115112 0)
(-0.0695114 -0.118128 0)
(-0.0413505 -0.106159 0)
(-0.0166115 -0.0764621 0)
(-0.00297819 -0.0295639 0)
(-0.00321979 0.0357409 0)
(-0.0166818 0.0873317 0)
(-0.0400536 0.118049 0)
(-0.0663308 0.130582 0)
(-0.0914588 0.129165 0)
(-0.113698 0.117898 0)
(-0.132323 0.100082 0)
(-0.147184 0.0780372 0)
(-0.158397 0.0531765 0)
(-0.166079 0.0262276 0)
(-0.170165 -0.00247022 0)
(-0.170304 -0.0326214 0)
(-0.165825 -0.0635817 0)
(-0.155807 -0.0939237 0)
(-0.139323 -0.121011 0)
(-0.115895 -0.14072 0)
(-0.0861448 -0.147553 0)
(-0.0526705 -0.13544 0)
(-0.021842 -0.0995217 0)
(-0.00409885 -0.0392694 0)
(-0.00419255 0.0454647 0)
(-0.0207895 0.109004 0)
(-0.0483914 0.144841 0)
(-0.0780746 0.157668 0)
(-0.105177 0.153788 0)
(-0.128151 0.138828 0)
(-0.146695 0.117028 0)
(-0.16112 0.0911633 0)
(-0.171952 0.0627526 0)
(-0.17963 0.0323882 0)
(-0.1843 0.00011711 0)
(-0.185682 -0.034145 0)
(-0.182998 -0.0701357 0)
(-0.17498 -0.106674 0)
(-0.160067 -0.141013 0)
(-0.136884 -0.168258 0)
(-0.105062 -0.181159 0)
(-0.0665976 -0.170785 0)
(-0.0288381 -0.128803 0)
(-0.00575026 -0.0522228 0)
(-0.0056078 0.0577907 0)
(-0.0261415 0.135084 0)
(-0.0581982 0.175468 0)
(-0.0904913 0.187043 0)
(-0.117976 0.179127 0)
(-0.139712 0.159326 0)
(-0.156155 0.132948 0)
(-0.168297 0.103195 0)
(-0.177217 0.0715963 0)
(-0.183771 0.038495 0)
(-0.188402 0.00351839 0)
(-0.191009 -0.0339584 0)
(-0.190825 -0.0742773 0)
(-0.186332 -0.116808 0)
(-0.175324 -0.159057 0)
(-0.155284 -0.195651 0)
(-0.124241 -0.217529 0)
(-0.0826252 -0.212063 0)
(-0.0379495 -0.165476 0)
(-0.00818828 -0.0696236 0)
(-0.00776328 0.0736819 0)
(-0.0331938 0.166159 0)
(-0.0692316 0.209258 0)
(-0.101999 0.216926 0)
(-0.126765 0.202785 0)
(-0.143923 0.176835 0)
(-0.15514 0.145439 0)
(-0.162309 0.112066 0)
(-0.167145 0.0780816 0)
(-0.17095 0.0434423 0)
(-0.17451 0.00724421 0)
(-0.178001 -0.0318016 0)
(-0.180851 -0.0748406 0)
(-0.181532 -0.122139 0)
(-0.177397 -0.17199 0)
(-0.164758 -0.219191 0)
(-0.139476 -0.253304 0)
(-0.0990624 -0.257503 0)
(-0.0493629 -0.210113 0)
(-0.0117902 -0.093031 0)
(-0.0111891 0.0946244 0)
(-0.042552 0.202407 0)
(-0.0805108 0.244122 0)
(-0.109233 0.243738 0)
(-0.125946 0.220672 0)
(-0.133501 0.18743 0)
(-0.13525 0.151092 0)
(-0.134083 0.114998 0)
(-0.132263 0.0800662 0)
(-0.131413 0.045711 0)
(-0.132586 0.0104428 0)
(-0.136277 -0.0277119 0)
(-0.142313 -0.0707852 0)
(-0.149545 -0.120218 0)
(-0.155406 -0.175715 0)
(-0.155459 -0.233296 0)
(-0.143263 -0.282384 0)
(-0.111995 -0.302464 0)
(-0.062646 -0.261713 0)
(-0.0170202 -0.124352 0)
(-0.0166423 0.123027 0)
(-0.0545131 0.242803 0)
(-0.0888766 0.275267 0)
(-0.105082 0.261114 0)
(-0.105561 0.226554 0)
(-0.0969474 0.185833 0)
(-0.0844319 0.145789 0)
(-0.0716056 0.108922 0)
(-0.0608623 0.0753059 0)
(-0.0537655 0.0436893 0)
(-0.0513696 0.0120543 0)
(-0.0543983 -0.0221007 0)
(-0.0632162 -0.061545 0)
(-0.0775187 -0.108926 0)
(-0.0956588 -0.165851 0)
(-0.113559 -0.230852 0)
(-0.123364 -0.29545 0)
(-0.113355 -0.337931 0)
(-0.0753781 -0.316074 0)
(-0.0240108 -0.1658 0)
(-0.0243701 0.163246 0)
(-0.0667644 0.283077 0)
(-0.0847706 0.292519 0)
(-0.074305 0.258393 0)
(-0.0480137 0.211816 0)
(-0.0166434 0.165958 0)
(0.0137351 0.125586 0)
(0.0398927 0.0914003 0)
(0.060195 0.0622761 0)
(0.0737968 0.0363109 0)
(0.0800871 0.0112012 0)
(0.0783697 -0.0156929 0)
(0.0677646 -0.0474019 0)
(0.0473928 -0.0873524 0)
(0.0170377 -0.139009 0)
(-0.0213606 -0.204411 0)
(-0.0610965 -0.280143 0)
(-0.0875984 -0.348794 0)
(-0.0797914 -0.363039 0)
(-0.0308478 -0.219991 0)
(-0.0297937 0.220635 0)
(-0.0659176 0.309399 0)
(-0.0412476 0.275953 0)
(0.0152553 0.219915 0)
(0.0770027 0.16698 0)
(0.133122 0.123156 0)
(0.179977 0.0888546 0)
(0.216718 0.0623745 0)
(0.243678 0.0414789 0)
(0.261439 0.0239713 0)
(0.27027 0.00774172 0)
(0.269817 -0.00939665 0)
(0.258929 -0.0299728 0)
(0.235603 -0.0572085 0)
(0.197265 -0.0953654 0)
(0.14191 -0.149599 0)
(0.070698 -0.223768 0)
(-0.00614672 -0.312812 0)
(-0.0553521 -0.379392 0)
(-0.0276886 -0.28416 0)
(0.00285347 0.269713 0)
(0.00700519 0.281295 0)
(0.112343 0.201475 0)
(0.225951 0.138066 0)
(0.316484 0.0939782 0)
(0.38505 0.063543 0)
(0.435977 0.0427192 0)
(0.472723 0.0283499 0)
(0.498132 0.0180408 0)
(0.514269 0.010045 0)
(0.522244 0.00301073 0)
(0.522159 -0.00428292 0)
(0.512989 -0.0132058 0)
(0.492336 -0.0256679 0)
(0.4561 -0.0447786 0)
(0.398262 -0.0759058 0)
(0.310477 -0.127774 0)
(0.185455 -0.210849 0)
(0.0545919 -0.316729 0)
(0.0277174 -0.310932 0)
(0.294882 0.143581 0)
(0.385007 0.126231 0)
(0.538092 0.077092 0)
(0.652336 0.0454607 0)
(0.720709 0.0270494 0)
(0.762977 0.01616 0)
(0.790386 0.00969327 0)
(0.808228 0.00580545 0)
(0.819569 0.00335999 0)
(0.826239 0.00166838 0)
(0.829155 0.000292027 0)
(0.828507 -0.00110078 0)
(0.823798 -0.00285109 0)
(0.813649 -0.005458 0)
(0.795303 -0.00986424 0)
(0.763476 -0.0180853 0)
(0.706447 -0.0345059 0)
(0.597892 -0.0677202 0)
(0.430561 -0.125409 0)
(0.317391 -0.150856 0)
)
;

boundaryField
{
    movingWall
    {
        type            fixedValue;
        value           uniform (1 0 0);
    }
    fixedWalls
    {
        type            noSlip;
    }
    frontAndBack
    {
        type            empty;
    }
}


// ************************************************************************* //
