/*--------------------------------*- C++ -*----------------------------------*\
  =========                 |
  \\      /  F ield         | OpenFOAM: The Open Source CFD Toolbox
   \\    /   O peration     | Website:  https://openfoam.org
    \\  /    A nd           | Version:  6
     \\/     M anipulation  |
\*---------------------------------------------------------------------------*/
FoamFile
{
    version     2.0;
    format      ascii;
    class       volVectorField;
    location    "0.065";
    object      U;
}
// * * * * * * * * * * * * * * * * * * * * * * * * * * * * * * * * * * * * * //

dimensions      [0 1 -1 0 0 0 0];

internalField   nonuniform List<vector> 
400
(
(6.43834e-05 -6.43612e-05 0)
(-0.000299516 0.000258302 0)
(-0.00150171 0.000528075 0)
(-0.00320007 0.000659866 0)
(-0.00506898 0.000685052 0)
(-0.00688943 0.00063991 0)
(-0.00851531 0.00055013 0)
(-0.00984915 0.00043132 0)
(-0.0108239 0.000291831 0)
(-0.0113905 0.000136252 0)
(-0.0115121 -3.16938e-05 0)
(-0.0111646 -0.000207041 0)
(-0.0103419 -0.000381883 0)
(-0.00906507 -0.000543662 0)
(-0.00739537 -0.000673386 0)
(-0.00545114 -0.000744453 0)
(-0.00342238 -0.000723425 0)
(-0.0015823 -0.000573603 0)
(-0.00029965 -0.000273525 0)
(7.4899e-05 7.14101e-05 0)
(-0.000250406 0.000287145 0)
(-0.00172818 0.00172094 0)
(-0.00482348 0.00283973 0)
(-0.00883753 0.00340659 0)
(-0.0131586 0.00350956 0)
(-0.0173506 0.003277 0)
(-0.0210923 0.00281456 0)
(-0.0241548 0.002195 0)
(-0.0263771 0.00146382 0)
(-0.0276441 0.000650808 0)
(-0.0278759 -0.000218585 0)
(-0.0270277 -0.001114 0)
(-0.0250993 -0.00199232 0)
(-0.0221531 -0.0027903 0)
(-0.0183391 -0.00341846 0)
(-0.0139236 -0.00375927 0)
(-0.00930655 -0.00367628 0)
(-0.00502178 -0.00304016 0)
(-0.00176032 -0.00180239 0)
(-0.000241695 -0.000276021 0)
(-0.000541242 0.00149476 0)
(-0.00299813 0.00485155 0)
(-0.00763745 0.00728726 0)
(-0.0134002 0.00851687 0)
(-0.0194816 0.00870485 0)
(-0.0253298 0.00810648 0)
(-0.030527 0.00694931 0)
(-0.0347675 0.00540101 0)
(-0.0378341 0.00357452 0)
(-0.039572 0.00154916 0)
(-0.0398749 -0.000606032 0)
(-0.0386851 -0.00281177 0)
(-0.0360051 -0.00496035 0)
(-0.0319206 -0.00689948 0)
(-0.0266322 -0.00842041 0)
(-0.0204917 -0.00925834 0)
(-0.0140182 -0.00911863 0)
(-0.00789342 -0.00774304 0)
(-0.00303217 -0.00505066 0)
(-0.000525688 -0.00148688 0)
(-0.000744694 0.00333239 0)
(-0.00397436 0.00923383 0)
(-0.00989385 0.0132573 0)
(-0.0170898 0.015224 0)
(-0.0245754 0.0154406 0)
(-0.0317137 0.0143254 0)
(-0.0380274 0.0122529 0)
(-0.0431683 0.00950366 0)
(-0.0468885 0.00627194 0)
(-0.0490095 0.00269719 0)
(-0.0494059 -0.00109875 0)
(-0.0480043 -0.00497752 0)
(-0.0447974 -0.00875335 0)
(-0.0398717 -0.0121656 0)
(-0.033448 -0.0148595 0)
(-0.0259278 -0.0163892 0)
(-0.0179171 -0.0162628 0)
(-0.0102278 -0.0140506 0)
(-0.00400489 -0.00958279 0)
(-0.000716095 -0.00331584 0)
(-0.000898754 0.00562523 0)
(-0.00478221 0.0146086 0)
(-0.0118433 0.0204544 0)
(-0.0203334 0.0232004 0)
(-0.0290809 0.0233752 0)
(-0.0373674 0.021608 0)
(-0.0446713 0.0184462 0)
(-0.0506189 0.0142976 0)
(-0.0549465 0.00944336 0)
(-0.0574607 0.00408469 0)
(-0.0580174 -0.00160441 0)
(-0.0565194 -0.00742664 0)
(-0.0529323 -0.0131144 0)
(-0.0473195 -0.0182873 0)
(-0.0398964 -0.0224217 0)
(-0.0310939 -0.0248534 0)
(-0.021601 -0.0248424 0)
(-0.0123816 -0.0217253 0)
(-0.00484925 -0.0151727 0)
(-0.000860311 -0.00559061 0)
(-0.00104292 0.00831531 0)
(-0.00556839 0.0209131 0)
(-0.0137781 0.0288387 0)
(-0.023583 0.0324185 0)
(-0.033613 0.0324839 0)
(-0.0430641 0.0299326 0)
(-0.0513757 0.0255194 0)
(-0.05816 0.0197948 0)
(-0.0631473 0.0131306 0)
(-0.0661351 0.00578484 0)
(-0.0669585 -0.00202483 0)
(-0.0654847 -0.0100508 0)
(-0.0616313 -0.0179472 0)
(-0.05541 -0.0252053 0)
(-0.0470003 -0.0311044 0)
(-0.0368432 -0.0347094 0)
(-0.0257145 -0.0349559 0)
(-0.0147691 -0.0308574 0)
(-0.00576186 -0.0218495 0)
(-0.00100655 -0.00828176 0)
(-0.00120799 0.0114254 0)
(-0.00646048 0.0282141 0)
(-0.0159637 0.0385055 0)
(-0.0272411 0.0429802 0)
(-0.0386964 0.0428612 0)
(-0.0494337 0.0393846 0)
(-0.05886 0.0335551 0)
(-0.0665849 0.0260849 0)
(-0.0723456 0.0174373 0)
(-0.0759376 0.00791691 0)
(-0.0771747 -0.00223264 0)
(-0.0758762 -0.0127326 0)
(-0.0718851 -0.0231722 0)
(-0.0651231 -0.0329112 0)
(-0.0556901 -0.0409999 0)
(-0.0440013 -0.04616 0)
(-0.0309141 -0.0468905 0)
(-0.0178214 -0.041751 0)
(-0.00693802 -0.02984 0)
(-0.00119671 -0.0114679 0)
(-0.00141951 0.015042 0)
(-0.00756971 0.0366938 0)
(-0.0186333 0.0496688 0)
(-0.0316508 0.0550895 0)
(-0.0447567 0.0546833 0)
(-0.0569594 0.0501128 0)
(-0.0676465 0.0426861 0)
(-0.0764453 0.0332991 0)
(-0.0831199 0.022506 0)
(-0.0874792 0.0106404 0)
(-0.0893199 -0.00205706 0)
(-0.0884033 -0.0153101 0)
(-0.0844681 -0.0286726 0)
(-0.0772943 -0.0413831 0)
(-0.0668327 -0.0522324 0)
(-0.0534046 -0.0595073 0)
(-0.037912 -0.061109 0)
(-0.0220271 -0.0549381 0)
(-0.00860007 -0.039587 0)
(-0.00147643 -0.0153324 0)
(-0.00170346 0.0193101 0)
(-0.00900636 0.0466431 0)
(-0.0220083 0.0626494 0)
(-0.0371171 0.0690302 0)
(-0.0521397 0.0681749 0)
(-0.0659933 0.0622905 0)
(-0.0780731 0.0530558 0)
(-0.0880585 0.041577 0)
(-0.0957739 0.0284953 0)
(-0.101069 0.014147 0)
(-0.10374 -0.00127211 0)
(-0.103487 -0.0175424 0)
(-0.0999157 -0.0342374 0)
(-0.0925987 -0.0505114 0)
(-0.0812363 -0.0648821 0)
(-0.065933 -0.0750964 0)
(-0.0475362 -0.0782332 0)
(-0.0280013 -0.0712091 0)
(-0.0110466 -0.0518002 0)
(-0.00191072 -0.0201898 0)
(-0.00209438 0.0244391 0)
(-0.0109027 0.0584628 0)
(-0.0263289 0.0778577 0)
(-0.043932 0.085129 0)
(-0.0611234 0.0835593 0)
(-0.0767522 0.0760587 0)
(-0.0902706 0.0647614 0)
(-0.101464 0.0510142 0)
(-0.11027 0.0355374 0)
(-0.116624 0.0186355 0)
(-0.120356 0.000401143 0)
(-0.121118 -0.0190815 0)
(-0.118366 -0.0394979 0)
(-0.111395 -0.0600013 0)
(-0.0995207 -0.078866 0)
(-0.0824369 -0.093205 0)
(-0.0607294 -0.0989839 0)
(-0.0365397 -0.0916308 0)
(-0.0147109 -0.0675348 0)
(-0.00260592 -0.0265454 0)
(-0.00264668 0.0307256 0)
(-0.0134402 0.0726779 0)
(-0.0318786 0.095774 0)
(-0.0523755 0.103703 0)
(-0.071883 0.100984 0)
(-0.0892424 0.0914409 0)
(-0.104047 0.0777668 0)
(-0.116269 0.0615787 0)
(-0.126033 0.0436632 0)
(-0.133425 0.0242494 0)
(-0.138366 0.00325438 0)
(-0.140507 -0.019478 0)
(-0.139161 -0.0438829 0)
(-0.1333 -0.0692655 0)
(-0.121709 -0.0937711 0)
(-0.103407 -0.113848 0)
(-0.0783551 -0.124024 0)
(-0.0485769 -0.117505 0)
(-0.0202066 -0.0882802 0)
(-0.00373853 -0.035196 0)
(-0.0034522 0.0385985 0)
(-0.0168809 0.0899571 0)
(-0.0389878 0.116904 0)
(-0.0626557 0.124962 0)
(-0.0843537 0.120391 0)
(-0.103047 0.108205 0)
(-0.118606 0.091763 0)
(-0.131302 0.0729745 0)
(-0.14154 0.0526698 0)
(-0.149642 0.0309521 0)
(-0.1557 0.00748283 0)
(-0.159445 -0.0182575 0)
(-0.160118 -0.0466342 0)
(-0.156382 -0.0773432 0)
(-0.146396 -0.108649 0)
(-0.128211 -0.136461 0)
(-0.100634 -0.153612 0)
(-0.064922 -0.150146 0)
(-0.0283172 -0.11598 0)
(-0.00559008 -0.0473671 0)
(-0.00467018 0.0486947 0)
(-0.0216032 0.111118 0)
(-0.0479855 0.141658 0)
(-0.0747219 0.148807 0)
(-0.0979007 0.141293 0)
(-0.116875 0.125634 0)
(-0.132 0.105949 0)
(-0.143996 0.0844344 0)
(-0.153649 0.0619197 0)
(-0.161603 0.0383268 0)
(-0.168216 0.0129863 0)
(-0.173414 -0.0151025 0)
(-0.176508 -0.0469334 0)
(-0.175997 -0.0829047 0)
(-0.169462 -0.121819 0)
(-0.153798 -0.159444 0)
(-0.126043 -0.186951 0)
(-0.0855967 -0.190284 0)
(-0.039848 -0.152822 0)
(-0.00858042 -0.064864 0)
(-0.00658218 0.0619859 0)
(-0.02814 0.137067 0)
(-0.0590362 0.170073 0)
(-0.0878288 0.174443 0)
(-0.110645 0.162365 0)
(-0.12772 0.142164 0)
(-0.140204 0.118729 0)
(-0.149429 0.0944594 0)
(-0.156646 0.0701044 0)
(-0.162872 0.0453389 0)
(-0.168791 0.0191118 0)
(-0.174645 -0.0101311 0)
(-0.18003 -0.0441663 0)
(-0.183582 -0.0844155 0)
(-0.182636 -0.130783 0)
(-0.173059 -0.179668 0)
(-0.149676 -0.221221 0)
(-0.108614 -0.236871 0)
(-0.0551851 -0.200489 0)
(-0.0132617 -0.0901397 0)
(-0.00968291 0.0799782 0)
(-0.0371868 0.168555 0)
(-0.0717002 0.201185 0)
(-0.0995971 0.19967 0)
(-0.118193 0.180834 0)
(-0.129455 0.15492 0)
(-0.13572 0.127385 0)
(-0.139051 0.10061 0)
(-0.141159 0.0750991 0)
(-0.143371 0.0502023 0)
(-0.146663 0.0244781 0)
(-0.151642 -0.00415448 0)
(-0.158399 -0.038268 0)
(-0.166152 -0.0804993 0)
(-0.172662 -0.132425 0)
(-0.173479 -0.192204 0)
(-0.161421 -0.250524 0)
(-0.128132 -0.285293 0)
(-0.0732337 -0.258537 0)
(-0.0201205 -0.126085 0)
(-0.0147475 0.105088 0)
(-0.0493372 0.205489 0)
(-0.0836893 0.231785 0)
(-0.103981 0.21973 0)
(-0.111337 0.191679 0)
(-0.110666 0.159292 0)
(-0.105762 0.127967 0)
(-0.0993248 0.0995955 0)
(-0.0932827 0.0741623 0)
(-0.0890104 0.0505994 0)
(-0.0875493 0.0271318 0)
(-0.0897536 0.00132718 0)
(-0.0962893 -0.0299512 0)
(-0.107379 -0.0704215 0)
(-0.122121 -0.123619 0)
(-0.137159 -0.190664 0)
(-0.144744 -0.265332 0)
(-0.132174 -0.325435 0)
(-0.0892083 -0.321882 0)
(-0.0287333 -0.17554 0)
(-0.0224529 0.141698 0)
(-0.0634692 0.245053 0)
(-0.0870894 0.253596 0)
(-0.0866806 0.225272 0)
(-0.0719805 0.18669 0)
(-0.0516193 0.148837 0)
(-0.0303591 0.115701 0)
(-0.0108439 0.0879423 0)
(0.00544257 0.0647021 0)
(0.0176319 0.044449 0)
(0.0250508 0.0252335 0)
(0.0269185 0.00461613 0)
(0.0221636 -0.0205752 0)
(0.0094312 -0.0544995 0)
(-0.0124659 -0.102221 0)
(-0.0430638 -0.16842 0)
(-0.0770971 -0.252957 0)
(-0.100636 -0.340092 0)
(-0.0910541 -0.377098 0)
(-0.0353497 -0.240248 0)
(-0.03016 0.19666 0)
(-0.0694134 0.275979 0)
(-0.0569335 0.247822 0)
(-0.0148273 0.200121 0)
(0.0337693 0.154718 0)
(0.0793311 0.116697 0)
(0.118715 0.086738 0)
(0.151017 0.0636848 0)
(0.176306 0.0457794 0)
(0.194946 0.0312083 0)
(0.207122 0.0181641 0)
(0.212518 0.00466461 0)
(0.210039 -0.0117802 0)
(0.197546 -0.034655 0)
(0.171767 -0.0690473 0)
(0.129061 -0.12201 0)
(0.0681151 -0.200971 0)
(-0.00377484 -0.304897 0)
(-0.0543868 -0.394622 0)
(-0.0267744 -0.311161 0)
(-0.00709965 0.253596 0)
(-0.011066 0.261979 0)
(0.0807655 0.188826 0)
(0.181766 0.132599 0)
(0.263594 0.0930136 0)
(0.326846 0.0648093 0)
(0.375175 0.0450249 0)
(0.411452 0.0312643 0)
(0.438097 0.0215162 0)
(0.456983 0.014218 0)
(0.469242 0.00812157 0)
(0.475146 0.00207809 0)
(0.473927 -0.00522343 0)
(0.463422 -0.0156373 0)
(0.439475 -0.0322518 0)
(0.395308 -0.0608024 0)
(0.320914 -0.11206 0)
(0.205098 -0.201095 0)
(0.0738883 -0.321479 0)
(0.0406681 -0.328329 0)
(0.285295 0.140599 0)
(0.365943 0.124543 0)
(0.509531 0.0786431 0)
(0.620276 0.0485652 0)
(0.68879 0.0303156 0)
(0.732228 0.0189035 0)
(0.76115 0.0117861 0)
(0.780649 0.00738934 0)
(0.793748 0.00463508 0)
(0.802367 0.00281028 0)
(0.807558 0.00143848 0)
(0.809653 0.000160902 0)
(0.8083 -0.00136643 0)
(0.802289 -0.00359333 0)
(0.789037 -0.00729779 0)
(0.763434 -0.0141673 0)
(0.714694 -0.0284243 0)
(0.615997 -0.0598169 0)
(0.449624 -0.120153 0)
(0.32865 -0.152641 0)
)
;

boundaryField
{
    movingWall
    {
        type            fixedValue;
        value           uniform (1 0 0);
    }
    fixedWalls
    {
        type            noSlip;
    }
    frontAndBack
    {
        type            empty;
    }
}


// ************************************************************************* //
