/*--------------------------------*- C++ -*----------------------------------*\
  =========                 |
  \\      /  F ield         | OpenFOAM: The Open Source CFD Toolbox
   \\    /   O peration     | Website:  https://openfoam.org
    \\  /    A nd           | Version:  6
     \\/     M anipulation  |
\*---------------------------------------------------------------------------*/
FoamFile
{
    version     2.0;
    format      ascii;
    class       volScalarField;
    location    "0.065";
    object      p;
}
// * * * * * * * * * * * * * * * * * * * * * * * * * * * * * * * * * * * * * //

dimensions      [0 2 -2 0 0 0 0];

internalField   nonuniform List<scalar> 
400
(
1.17805e-06
-0.0054392
-0.0121174
-0.0171208
-0.0188104
-0.0164726
-0.010064
-1.62181e-05
0.0129109
0.0277285
0.0432926
0.0583724
0.0717303
0.0822223
0.088929
0.0913175
0.0894362
0.0841205
0.077209
0.0717494
0.00539039
-0.000211947
-0.00544223
-0.0088475
-0.00964771
-0.00734224
-0.00186887
0.00646375
0.0170795
0.029206
0.0419338
0.0542784
0.0652527
0.0739557
0.0796784
0.0820268
0.081064
0.0773875
0.0719521
0.0663538
0.0124732
0.00469097
-0.000979591
-0.00410596
-0.00471781
-0.00255778
0.00236656
0.00976166
0.0191307
0.0298184
0.0410497
0.0519777
0.0617447
0.0695568
0.0747708
0.0769935
0.076207
0.0727637
0.0668289
0.0590278
0.0188111
0.00803625
0.000965714
-0.00262124
-0.00342863
-0.00141812
0.00329912
0.0103845
0.019352
0.0295913
0.0403864
0.0509461
0.0604518
0.0681191
0.0732708
0.0754272
0.0744413
0.0704487
0.0629807
0.0520883
0.0228421
0.00889882
0.000145976
-0.00411357
-0.00516937
-0.00317612
0.00164611
0.00889153
0.0180534
0.0285311
0.0396272
0.0505622
0.0605065
0.0686302
0.0741654
0.0764953
0.0753155
0.070559
0.0612111
0.0469465
0.0234067
0.00622025
-0.00429938
-0.00923702
-0.0104232
-0.0081916
-0.00287444
0.00504164
0.0150099
0.0264158
0.0385544
0.0506271
0.0617568
0.0710251
0.0775245
0.0804524
0.0793102
0.073819
0.0624447
0.0445856
0.0194687
-0.00106323
-0.0133389
-0.0188122
-0.0198642
-0.017015
-0.0107189
-0.0015551
0.00987797
0.0229401
0.036906
0.0509407
0.0640964
0.0753319
0.0835538
0.0877169
0.087072
0.081081
0.0676405
0.0458886
0.00992144
-0.0141075
-0.0280437
-0.033757
-0.0342507
-0.0302669
-0.0224032
-0.0113433
0.00225928
0.0177407
0.0343589
0.0512445
0.0673719
0.0815558
0.0924738
0.0987707
0.0993616
0.0933518
0.0779237
0.0518863
-0.00656302
-0.034289
-0.0496839
-0.0551511
-0.0544634
-0.0486558
-0.0385054
-0.0248131
-0.00828184
0.0104193
0.0305562
0.051249
0.071411
0.0897099
0.10456
0.114218
0.117146
0.111928
0.0947696
0.0639782
-0.0316722
-0.0633288
-0.0798
-0.0842494
-0.0814722
-0.0729144
-0.0595852
-0.0424147
-0.0221367
0.00061334
0.0251593
0.0506658
0.0760331
0.09981
0.120133
0.134795
0.141651
0.138519
0.1202
0.0841657
-0.0676408
-0.103457
-0.120282
-0.122468
-0.116254
-0.103674
-0.0860377
-0.0644083
-0.0395108
-0.0118806
0.0179475
0.0492751
0.0810832
0.111878
0.139549
0.16137
0.174414
0.175396
0.15704
0.115368
-0.117587
-0.157672
-0.173464
-0.171335
-0.159646
-0.141268
-0.117877
-0.0906475
-0.0602205
-0.026926
0.00896708
0.0470377
0.0864985
0.125962
0.163182
0.194924
0.217328
0.225565
0.209292
0.161932
-0.186193
-0.230176
-0.242234
-0.23236
-0.212092
-0.185429
-0.154431
-0.120296
-0.0834397
-0.0438265
-0.00128572
0.0442317
0.092391
0.142157
0.191386
0.236494
0.272636
0.292978
0.282698
0.230554
-0.281188
-0.327114
-0.330079
-0.306723
-0.273204
-0.234843
-0.193948
-0.151502
-0.107442
-0.0611264
-0.0117164
0.0415497
0.0990782
0.160547
0.224345
0.286955
0.342777
0.382671
0.385618
0.332102
-0.416495
-0.457697
-0.440806
-0.394496
-0.340947
-0.286485
-0.233122
-0.181101
-0.129438
-0.0765452
-0.0206391
0.0400267
0.106933
0.180937
0.261629
0.346401
0.429732
0.500548
0.53022
0.485173
-0.617917
-0.635339
-0.577576
-0.493371
-0.410589
-0.334936
-0.266781
-0.204583
-0.145731
-0.087246
-0.026103
0.0406793
0.115975
0.202346
0.30149
0.413166
0.533808
0.652312
0.733245
0.721669
-0.933532
-0.87794
-0.741157
-0.597692
-0.4744
-0.372593
-0.288472
-0.216902
-0.152603
-0.0907003
-0.0266909
0.0437928
0.125239
0.222415
0.340249
0.483049
0.652387
0.841424
1.01572
1.09613
-1.47342
-1.20818
-0.920631
-0.691626
-0.51794
-0.388109
-0.290246
-0.212996
-0.147219
-0.0858092
-0.0228136
0.0473859
0.130823
0.234732
0.368416
0.543522
0.771456
1.05938
1.4053
1.72722
-2.53126
-1.63924
-1.04638
-0.711695
-0.496896
-0.353168
-0.255192
-0.183672
-0.125621
-0.0724436
-0.0176428
0.0447057
0.121201
0.220636
0.356387
0.549136
0.826952
1.23848
1.92109
2.91484
-4.34955
-2.04873
-0.974898
-0.564651
-0.360224
-0.242603
-0.172075
-0.124941
-0.0876978
-0.0527741
-0.0150692
0.0298866
0.0872205
0.164455
0.274973
0.444131
0.719219
1.22661
2.41474
4.83002
)
;

boundaryField
{
    movingWall
    {
        type            zeroGradient;
    }
    fixedWalls
    {
        type            zeroGradient;
    }
    frontAndBack
    {
        type            empty;
    }
}


// ************************************************************************* //
