/*--------------------------------*- C++ -*----------------------------------*\
  =========                 |
  \\      /  F ield         | OpenFOAM: The Open Source CFD Toolbox
   \\    /   O peration     | Website:  https://openfoam.org
    \\  /    A nd           | Version:  6
     \\/     M anipulation  |
\*---------------------------------------------------------------------------*/
FoamFile
{
    version     2.0;
    format      ascii;
    class       surfaceScalarField;
    location    "0.065";
    object      phi;
}
// * * * * * * * * * * * * * * * * * * * * * * * * * * * * * * * * * * * * * //

dimensions      [0 3 -1 0 0 0 0];

internalField   nonuniform List<scalar> 
760
(
1.31285e-08
-1.31341e-08
-2.18195e-08
3.49482e-08
-1.09205e-07
8.73855e-08
-2.33243e-07
1.24038e-07
-3.75256e-07
1.42013e-07
-5.17672e-07
1.42417e-07
-6.45433e-07
1.2776e-07
-7.46511e-07
1.01079e-07
-8.12013e-07
6.55017e-08
-8.36191e-07
2.41776e-08
-8.16555e-07
-1.96358e-08
-7.54102e-07
-6.24532e-08
-6.53609e-07
-1.00493e-07
-5.23892e-07
-1.29717e-07
-3.77856e-07
-1.46036e-07
-2.32119e-07
-1.45738e-07
-1.05861e-07
-1.26258e-07
-1.86183e-08
-8.72426e-08
1.44663e-08
-3.30848e-08
1.44662e-08
-3.27241e-08
1.95897e-08
-1.71248e-07
1.73472e-07
-4.1084e-07
3.26978e-07
-7.22441e-07
4.35638e-07
-1.06874e-06
4.88315e-07
-1.41209e-06
4.85767e-07
-1.71864e-06
4.34309e-07
-1.96047e-06
3.4291e-07
-2.1166e-06
2.21631e-07
-2.17351e-06
8.10836e-08
-2.12558e-06
-6.75621e-08
-1.97562e-06
-2.12417e-07
-1.73529e-06
-3.40824e-07
-1.42536e-06
-4.39647e-07
-1.07531e-06
-4.96087e-07
-7.21808e-07
-4.99238e-07
-4.055e-07
-4.42566e-07
-1.65418e-07
-3.27324e-07
-2.9874e-08
-1.68629e-07
-1.5408e-08
-8.73511e-08
1.06941e-07
-3.37666e-07
4.23787e-07
-7.22594e-07
7.11906e-07
-1.19802e-06
9.1106e-07
-1.71279e-06
1.00309e-06
-2.21598e-06
9.88957e-07
-2.6616e-06
8.79931e-07
-3.01147e-06
6.92773e-07
-3.23672e-06
4.46886e-07
-3.31876e-06
1.63125e-07
-3.24991e-06
-1.36418e-07
-3.03404e-06
-4.2828e-07
-2.6872e-06
-6.87668e-07
-2.23772e-06
-8.89122e-07
-1.72565e-06
-1.00816e-06
-1.20059e-06
-1.0243e-06
-7.17606e-07
-9.25549e-07
-3.30628e-07
-7.14302e-07
-8.34744e-08
-4.15783e-07
-9.88824e-08
-1.37395e-07
2.44336e-07
-4.97479e-07
7.83871e-07
-1.02406e-06
1.23848e-06
-1.65408e-06
1.54108e-06
-2.32231e-06
1.67132e-06
-2.96669e-06
1.63334e-06
-3.53239e-06
1.44563e-06
-3.97432e-06
1.1347e-06
-4.25853e-06
7.31101e-07
-4.3631e-06
2.67689e-07
-4.27875e-06
-2.20766e-07
-4.00964e-06
-6.97394e-07
-3.57404e-06
-1.12327e-06
-3.00481e-06
-1.45835e-06
-2.34899e-06
-1.66398e-06
-1.66594e-06
-1.70734e-06
-1.02337e-06
-1.56812e-06
-4.91042e-07
-1.24663e-06
-1.32868e-07
-7.73958e-07
-2.3175e-07
-1.83831e-07
4.28167e-07
-6.51238e-07
1.25128e-06
-1.3178e-06
1.90505e-06
-2.09913e-06
2.32241e-06
-2.9147e-06
2.4869e-06
-3.69188e-06
2.41052e-06
-4.36864e-06
2.12239e-06
-4.89506e-06
1.66112e-06
-5.234e-06
1.07004e-06
-5.36135e-06
3.95042e-07
-5.26646e-06
-3.1565e-07
-4.95286e-06
-1.01099e-06
-4.43928e-06
-1.63685e-06
-3.76071e-06
-2.13692e-06
-2.9689e-06
-2.45579e-06
-2.13147e-06
-2.54477e-06
-1.32894e-06
-2.37066e-06
-6.4911e-07
-1.92646e-06
-1.79573e-07
-1.2435e-06
-4.11322e-07
-2.29348e-07
6.57514e-07
-8.04353e-07
1.82628e-06
-1.61185e-06
2.71254e-06
-2.54426e-06
3.25482e-06
-3.50475e-06
3.44738e-06
-4.41026e-06
3.31603e-06
-5.19282e-06
2.90495e-06
-5.79943e-06
2.26773e-06
-6.19133e-06
1.46194e-06
-6.34325e-06
5.46967e-07
-6.24324e-06
-4.15661e-07
-5.89326e-06
-1.36098e-06
-5.31068e-06
-2.21943e-06
-4.53037e-06
-2.91723e-06
-3.60664e-06
-3.37952e-06
-2.61421e-06
-3.5372e-06
-1.64687e-06
-3.33801e-06
-8.12915e-07
-2.76041e-06
-2.27175e-07
-1.82924e-06
-6.38497e-07
-2.76539e-07
9.34053e-07
-9.62677e-07
2.51242e-06
-1.9142e-06
3.66407e-06
-2.99829e-06
4.33892e-06
-4.10094e-06
4.55003e-06
-5.12934e-06
4.34443e-06
-6.01125e-06
3.78686e-06
-6.69272e-06
2.9492e-06
-7.1353e-06
1.90452e-06
-7.31379e-06
7.25463e-07
-7.21513e-06
-5.14322e-07
-6.83875e-06
-1.73736e-06
-6.1986e-06
-2.85957e-06
-5.32661e-06
-3.78923e-06
-4.27681e-06
-4.42932e-06
-3.12903e-06
-4.68498e-06
-1.9902e-06
-4.47684e-06
-9.91462e-07
-3.75914e-06
-2.79386e-07
-2.54131e-06
-9.17883e-07
-3.27684e-07
1.26174e-06
-1.13132e-06
3.31606e-06
-2.2308e-06
4.76355e-06
-3.46518e-06
5.5733e-06
-4.70288e-06
5.78772e-06
-5.84295e-06
5.48451e-06
-6.81176e-06
4.75567e-06
-7.55755e-06
3.69499e-06
-8.04498e-06
2.39194e-06
-8.25076e-06
9.31249e-07
-8.16127e-06
-6.03818e-07
-7.77243e-06
-2.1262e-06
-7.0923e-06
-3.5397e-06
-6.14612e-06
-4.73541e-06
-4.98332e-06
-5.59212e-06
-3.68505e-06
-5.98325e-06
-2.36975e-06
-5.79214e-06
-1.19323e-06
-4.93566e-06
-3.39765e-07
-3.39477e-06
-1.25765e-06
-3.84923e-07
1.64666e-06
-1.31458e-06
4.24571e-06
-2.56481e-06
6.01378e-06
-3.94258e-06
6.95107e-06
-5.29907e-06
7.14422e-06
-6.52855e-06
6.71398e-06
-7.56061e-06
5.78773e-06
-8.35051e-06
4.48489e-06
-8.87007e-06
2.9115e-06
-9.10071e-06
1.16188e-06
-9.02934e-06
-6.7519e-07
-8.6476e-06
-2.50793e-06
-7.95476e-06
-4.23255e-06
-6.96442e-06
-5.72574e-06
-5.71503e-06
-6.84152e-06
-4.28253e-06
-7.41574e-06
-2.79242e-06
-7.28225e-06
-1.4257e-06
-6.30239e-06
-4.11843e-07
-4.40863e-06
-1.66949e-06
-4.50865e-07
2.09752e-06
-1.51678e-06
5.31163e-06
-2.91675e-06
7.41375e-06
-4.42069e-06
8.455e-06
-5.86453e-06
8.58806e-06
-7.14367e-06
7.99312e-06
-8.19828e-06
6.84234e-06
-8.99749e-06
5.28411e-06
-9.52588e-06
3.43989e-06
-9.77342e-06
1.40943e-06
-9.7295e-06
-7.1911e-07
-9.3811e-06
-2.85634e-06
-8.71563e-06
-4.89802e-06
-7.7291e-06
-6.71227e-06
-6.44009e-06
-8.13053e-06
-4.90905e-06
-8.94678e-06
-3.25969e-06
-8.93162e-06
-1.69552e-06
-7.86656e-06
-4.9961e-07
-5.60454e-06
-2.1691e-06
-5.29688e-07
2.62721e-06
-1.74373e-06
6.52568e-06
-3.2848e-06
8.95482e-06
-4.88051e-06
1.00507e-05
-6.35698e-06
1.00645e-05
-7.62093e-06
9.25707e-06
-8.63378e-06
7.85519e-06
-9.38778e-06
6.03811e-06
-9.88727e-06
3.93938e-06
-1.01356e-05
1.65777e-06
-1.01274e-05
-7.27345e-07
-9.84531e-06
-3.1384e-06
-9.26246e-06
-5.48086e-06
-8.35077e-06
-7.62397e-06
-7.09795e-06
-9.38335e-06
-5.53395e-06
-1.05108e-05
-3.76518e-06
-1.07004e-05
-2.00873e-06
-9.62301e-06
-6.08403e-07
-7.00486e-06
-2.7775e-06
-6.28993e-07
3.25621e-06
-2.00457e-06
7.90126e-06
-3.66395e-06
1.06142e-05
-5.28954e-06
1.16763e-05
-6.70998e-06
1.1485e-05
-7.85983e-06
1.04069e-05
-8.73663e-06
8.732e-06
-9.3669e-06
6.66838e-06
-9.78232e-06
4.35481e-06
-1.00047e-05
1.88019e-06
-1.00372e-05
-6.94863e-07
-9.85987e-06
-3.31576e-06
-9.43038e-06
-5.91035e-06
-8.69129e-06
-8.36306e-06
-7.58756e-06
-1.04871e-05
-6.09903e-06
-1.19993e-05
-4.29005e-06
-1.25094e-05
-2.37066e-06
-1.15424e-05
-7.46373e-07
-8.62915e-06
-3.52388e-06
-7.62825e-07
4.01903e-06
-2.31311e-06
9.45154e-06
-4.04146e-06
1.23425e-05
-5.59136e-06
1.32262e-05
-6.81928e-06
1.27129e-05
-7.71317e-06
1.13008e-05
-8.3254e-06
9.34422e-06
-8.72807e-06
7.07104e-06
-8.98651e-06
4.61325e-06
-9.14473e-06
2.03841e-06
-9.21732e-06
-6.22276e-07
-9.18475e-06
-3.34833e-06
-8.99148e-06
-6.10363e-06
-8.54909e-06
-8.80545e-06
-7.75026e-06
-1.12859e-05
-6.50264e-06
-1.32469e-05
-4.79287e-06
-1.42191e-05
-2.78404e-06
-1.35512e-05
-9.26801e-07
-1.04864e-05
-4.45068e-06
-9.56113e-07
4.97514e-06
-2.68549e-06
1.11809e-05
-4.38191e-06
1.4039e-05
-5.68159e-06
1.45259e-05
-6.5166e-06
1.35479e-05
-6.96421e-06
1.17484e-05
-7.15124e-06
9.53125e-06
-7.20287e-06
7.12268e-06
-7.21919e-06
4.62957e-06
-7.26593e-06
2.08515e-06
-7.37043e-06
-5.17772e-07
-7.51783e-06
-3.20093e-06
-7.6461e-06
-5.97535e-06
-7.64205e-06
-8.80951e-06
-7.34496e-06
-1.1583e-05
-6.57218e-06
-1.40197e-05
-5.18827e-06
-1.5603e-05
-3.24124e-06
-1.54982e-05
-1.17096e-06
-1.25567e-05
-5.62163e-06
-1.24827e-06
6.22341e-06
-3.12347e-06
1.30561e-05
-4.5864e-06
1.55019e-05
-5.35632e-06
1.52958e-05
-5.52145e-06
1.3713e-05
-5.29026e-06
1.15172e-05
-4.87601e-06
9.117e-06
-4.45264e-06
6.6993e-06
-4.14527e-06
4.3222e-06
-4.03325e-06
1.97313e-06
-4.1539e-06
-3.97125e-07
-4.50165e-06
-2.85319e-06
-5.0205e-06
-5.4565e-06
-5.59053e-06
-8.23948e-06
-6.01391e-06
-1.11596e-05
-6.0168e-06
-1.40168e-05
-5.30086e-06
-1.6319e-05
-3.69879e-06
-1.71003e-05
-1.50758e-06
-1.47479e-05
-7.12922e-06
-1.68178e-06
7.90519e-06
-3.55029e-06
1.49246e-05
-4.39131e-06
1.63429e-05
-4.20943e-06
1.51139e-05
-3.36066e-06
1.28643e-05
-2.21213e-06
1.03687e-05
-1.04915e-06
7.95402e-06
-6.6631e-08
5.71679e-06
6.11696e-07
3.64388e-06
9.11695e-07
1.67314e-06
7.94661e-07
-2.80091e-07
2.53565e-07
-2.31209e-06
-6.78702e-07
-4.52423e-06
-1.90737e-06
-7.01081e-06
-3.24042e-06
-9.82657e-06
-4.35032e-06
-1.29069e-05
-4.76931e-06
-1.59e-05
-4.0014e-06
-1.78682e-05
-1.95113e-06
-1.67982e-05
-9.08035e-06
-2.23048e-06
1.01357e-05
-3.61706e-06
1.63112e-05
-3.14092e-06
1.58668e-05
-1.44855e-06
1.34215e-05
7.47076e-07
1.06687e-05
2.9598e-06
8.15597e-06
4.90208e-06
6.01173e-06
6.41993e-06
4.19893e-06
7.43548e-06
2.62833e-06
7.90764e-06
1.20098e-06
7.81015e-06
-1.82605e-07
7.12368e-06
-1.62562e-06
5.84149e-06
-3.24203e-06
3.99284e-06
-5.16216e-06
1.69262e-06
-7.52635e-06
-7.76473e-07
-1.04378e-05
-2.86214e-06
-1.38143e-05
-3.69171e-06
-1.70387e-05
-2.41128e-06
-1.80786e-05
-1.14916e-05
-2.55084e-06
1.26865e-05
-2.19873e-06
1.59591e-05
6.7327e-07
1.29948e-05
4.39137e-06
9.70344e-06
8.01655e-06
7.04346e-06
1.11451e-05
5.02742e-06
1.3636e-05
3.5208e-06
1.54654e-05
2.36957e-06
1.66492e-05
1.44454e-06
1.72042e-05
6.45951e-07
1.71297e-05
-1.08058e-07
1.63993e-05
-8.9528e-07
1.49615e-05
-1.80419e-06
1.27508e-05
-2.9515e-06
9.72665e-06
-4.50217e-06
5.96576e-06
-6.67693e-06
1.85323e-06
-9.7018e-06
-1.58298e-06
-1.36025e-05
-2.43656e-06
-1.7225e-05
-1.39282e-05
-8.4406e-07
1.35306e-05
4.05919e-06
1.10559e-05
1.02724e-05
6.7816e-06
1.57474e-05
4.2284e-06
2.00847e-05
2.70613e-06
2.33559e-05
1.75626e-06
2.57316e-05
1.14511e-06
2.73704e-05
7.30789e-07
2.83883e-05
4.26565e-07
2.88549e-05
1.79365e-07
2.87938e-05
-4.69378e-08
2.81818e-05
-2.833e-07
2.69433e-05
-5.65617e-07
2.49397e-05
-9.47912e-07
2.19618e-05
-1.52432e-06
1.77509e-05
-2.46602e-06
1.213e-05
-4.0809e-06
5.44265e-06
-6.91509e-06
-1.98801e-07
-1.15836e-05
-1.4127e-05
1.35306e-05
2.45864e-05
3.1368e-05
3.55964e-05
3.83026e-05
4.00588e-05
4.12039e-05
4.19347e-05
4.23613e-05
4.25406e-05
4.24937e-05
4.22104e-05
4.16448e-05
4.06969e-05
3.91726e-05
3.67065e-05
3.26256e-05
2.57105e-05
1.4127e-05
)
;

boundaryField
{
    movingWall
    {
        type            calculated;
        value           uniform 0;
    }
    fixedWalls
    {
        type            calculated;
        value           uniform 0;
    }
    frontAndBack
    {
        type            empty;
        value           nonuniform 0();
    }
}


// ************************************************************************* //
