/*--------------------------------*- C++ -*----------------------------------*\
  =========                 |
  \\      /  F ield         | OpenFOAM: The Open Source CFD Toolbox
   \\    /   O peration     | Website:  https://openfoam.org
    \\  /    A nd           | Version:  6
     \\/     M anipulation  |
\*---------------------------------------------------------------------------*/
FoamFile
{
    version     2.0;
    format      ascii;
    class       volVectorField;
    location    "0.065";
    object      U;
}
// * * * * * * * * * * * * * * * * * * * * * * * * * * * * * * * * * * * * * //

dimensions      [0 1 -1 0 0 0 0];

internalField   nonuniform List<vector> 
400
(
(0.000231674 -0.000228614 0)
(0.000116223 0.000117099 0)
(-0.00113445 0.000544644 0)
(-0.00331557 0.000844963 0)
(-0.00604974 0.000994263 0)
(-0.00896263 0.00100723 0)
(-0.0117227 0.000907463 0)
(-0.0140567 0.000720064 0)
(-0.0157544 0.000468752 0)
(-0.016669 0.000176063 0)
(-0.0167172 -0.000135233 0)
(-0.0158832 -0.000440636 0)
(-0.0142238 -0.00071291 0)
(-0.0118747 -0.000921942 0)
(-0.00905438 -0.00103579 0)
(-0.00606224 -0.00102361 0)
(-0.00326418 -0.000861364 0)
(-0.00106203 -0.000540977 0)
(0.000165113 -9.93911e-05 0)
(0.000245702 0.000240538 0)
(-8.40566e-05 -0.000143605 0)
(-0.00154304 0.00157624 0)
(-0.00539753 0.00343361 0)
(-0.0110847 0.0047613 0)
(-0.0178441 0.00541914 0)
(-0.0249095 0.00542722 0)
(-0.031555 0.00486858 0)
(-0.0371548 0.00385239 0)
(-0.041216 0.00249595 0)
(-0.0433914 0.000919927 0)
(-0.0434875 -0.000749864 0)
(-0.0414742 -0.00237915 0)
(-0.0374944 -0.0038235 0)
(-0.0318729 -0.00493077 0)
(-0.0251169 -0.0055496 0)
(-0.0178993 -0.00554702 0)
(-0.0110102 -0.004838 0)
(-0.00526929 -0.00342861 0)
(-0.00144704 -0.00150987 0)
(-5.35774e-05 0.000195933 0)
(-0.000508795 0.0010489 0)
(-0.00352075 0.00543953 0)
(-0.0100129 0.00966449 0)
(-0.018889 0.0126471 0)
(-0.0290477 0.0140765 0)
(-0.0394636 0.0139597 0)
(-0.0491574 0.0124628 0)
(-0.0572757 0.0098324 0)
(-0.063142 0.00635136 0)
(-0.0662785 0.00232181 0)
(-0.0664192 -0.00193681 0)
(-0.0635235 -0.00608485 0)
(-0.0577887 -0.00976241 0)
(-0.0496591 -0.0125986 0)
(-0.0398253 -0.0142356 0)
(-0.0291995 -0.0143732 0)
(-0.018846 -0.0128382 0)
(-0.00986851 -0.00967683 0)
(-0.00339563 -0.0053065 0)
(-0.000465504 -0.000927928 0)
(-0.000886386 0.00330668 0)
(-0.00539664 0.0115696 0)
(-0.0144888 0.0188272 0)
(-0.0264295 0.0237779 0)
(-0.039736 0.0260091 0)
(-0.0531493 0.025552 0)
(-0.0654971 0.0226897 0)
(-0.0757682 0.0178436 0)
(-0.0831665 0.0115047 0)
(-0.0871302 0.00420278 0)
(-0.0873444 -0.00350019 0)
(-0.0837545 -0.0110076 0)
(-0.0765819 -0.0176902 0)
(-0.0663373 -0.0229032 0)
(-0.0538251 -0.0260278 0)
(-0.0401254 -0.0265468 0)
(-0.0265208 -0.0241556 0)
(-0.0143847 -0.0189025 0)
(-0.00526021 -0.011375 0)
(-0.000831584 -0.00309779 0)
(-0.00122329 0.00652462 0)
(-0.00717203 0.0198512 0)
(-0.0188341 0.0307659 0)
(-0.0337976 0.0379063 0)
(-0.0501578 0.0408739 0)
(-0.0664166 0.0398041 0)
(-0.0812334 0.0351533 0)
(-0.0934805 0.0275594 0)
(-0.102284 0.0177534 0)
(-0.107032 0.00651863 0)
(-0.107373 -0.00531687 0)
(-0.103233 -0.0168758 0)
(-0.0948293 -0.027231 0)
(-0.0826939 -0.0354268 0)
(-0.0676959 -0.0405358 0)
(-0.0510409 -0.041763 0)
(-0.0342138 -0.0385994 0)
(-0.0188803 -0.0310079 0)
(-0.00706384 -0.0196411 0)
(-0.00116217 -0.00622129 0)
(-0.00154715 0.0106538 0)
(-0.0089272 0.0302663 0)
(-0.0231793 0.0454965 0)
(-0.0411804 0.0550412 0)
(-0.0605693 0.0586441 0)
(-0.0795999 0.0566511 0)
(-0.0967801 0.0497708 0)
(-0.110898 0.0389098 0)
(-0.12104 0.0250696 0)
(-0.126569 0.00930212 0)
(-0.127111 -0.00729275 0)
(-0.122563 -0.0235516 0)
(-0.113109 -0.0382365 0)
(-0.0992612 -0.0500519 0)
(-0.0819035 -0.0577087 0)
(-0.062331 -0.0600539 0)
(-0.0422201 -0.0562674 0)
(-0.0235588 -0.0461036 0)
(-0.00892027 -0.0301587 0)
(-0.00149216 -0.0102757 0)
(-0.00188404 0.0157021 0)
(-0.0107485 0.0428573 0)
(-0.0276679 0.0630721 0)
(-0.0487515 0.0752091 0)
(-0.0711478 0.0792986 0)
(-0.0928614 0.076029 0)
(-0.112276 0.0664594 0)
(-0.128137 0.0518272 0)
(-0.139532 0.0334328 0)
(-0.145835 0.0125993 0)
(-0.146665 -0.00931352 0)
(-0.141881 -0.0308714 0)
(-0.131604 -0.050531 0)
(-0.116272 -0.0666378 0)
(-0.0967271 -0.0774859 0)
(-0.0742986 -0.0814641 0)
(-0.0508289 -0.0773004 0)
(-0.0286476 -0.0643756 0)
(-0.0109571 -0.043081 0)
(-0.0018572 -0.0153157 0)
(-0.00225708 0.0217265 0)
(-0.0127145 0.0577257 0)
(-0.0324215 0.0835699 0)
(-0.056623 0.0984151 0)
(-0.081938 0.102758 0)
(-0.10614 0.0977925 0)
(-0.127536 0.0850512 0)
(-0.144894 0.0661714 0)
(-0.157367 0.0427751 0)
(-0.164386 0.0164442 0)
(-0.16559 -0.011237 0)
(-0.160797 -0.0386049 0)
(-0.150027 -0.0638411 0)
(-0.133583 -0.084932 0)
(-0.112177 -0.0997041 0)
(-0.0870876 -0.105973 0)
(-0.0602586 -0.101833 0)
(-0.0343553 -0.0860711 0)
(-0.0132994 -0.0586636 0)
(-0.00229211 -0.0214696 0)
(-0.00268952 0.0288275 0)
(-0.0148993 0.0750242 0)
(-0.0375338 0.107068 0)
(-0.0648229 0.124595 0)
(-0.0928155 0.128812 0)
(-0.119099 0.121634 0)
(-0.141993 0.105211 0)
(-0.160387 0.0816563 0)
(-0.173591 0.0529271 0)
(-0.181166 0.0208285 0)
(-0.182808 -0.0128945 0)
(-0.178298 -0.046425 0)
(-0.167523 -0.0777356 0)
(-0.150568 -0.104485 0)
(-0.1279 -0.124001 0)
(-0.100605 -0.133403 0)
(-0.0706078 -0.129929 0)
(-0.0408521 -0.111462 0)
(-0.0160703 -0.0772537 0)
(-0.00283405 -0.0289364 0)
(-0.0032124 0.0371508 0)
(-0.0173905 0.0949438 0)
(-0.0430832 0.133601 0)
(-0.0732874 0.153536 0)
(-0.10345 0.157018 0)
(-0.131068 0.146965 0)
(-0.15462 0.126323 0)
(-0.173265 0.0977557 0)
(-0.186595 0.063546 0)
(-0.194398 0.0256597 0)
(-0.196487 -0.0140992 0)
(-0.192625 -0.0538786 0)
(-0.182529 -0.0915565 0)
(-0.16598 -0.124546 0)
(-0.143046 -0.149682 0)
(-0.114424 -0.163281 0)
(-0.0818023 -0.161457 0)
(-0.0482602 -0.140775 0)
(-0.0194026 -0.0992682 0)
(-0.0035302 -0.0379892 0)
(-0.00387881 0.0469063 0)
(-0.0203216 0.117709 0)
(-0.0491557 0.163095 0)
(-0.0818465 0.18476 0)
(-0.113247 0.186557 0)
(-0.140951 0.172781 0)
(-0.16382 0.147371 0)
(-0.181486 0.1136 0)
(-0.193992 0.0740384 0)
(-0.201466 0.030709 0)
(-0.203915 -0.014668 0)
(-0.201116 -0.0603724 0)
(-0.192603 -0.10436 0)
(-0.177764 -0.143948 0)
(-0.156096 -0.175562 0)
(-0.127639 -0.194652 0)
(-0.0935139 -0.195926 0)
(-0.056639 -0.174075 0)
(-0.0234613 -0.125164 0)
(-0.00445149 -0.0489922 0)
(-0.00478932 0.0584166 0)
(-0.0239215 0.143581 0)
(-0.0558631 0.195278 0)
(-0.0901724 0.217363 0)
(-0.12123 0.216052 0)
(-0.147065 0.197485 0)
(-0.167255 0.166795 0)
(-0.18217 0.127873 0)
(-0.192485 0.0834854 0)
(-0.198791 0.0355583 0)
(-0.201372 -0.0144567 0)
(-0.200068 -0.065181 0)
(-0.19424 -0.114881 0)
(-0.182835 -0.161016 0)
(-0.164615 -0.199794 0)
(-0.138646 -0.225844 0)
(-0.105013 -0.23223 0)
(-0.0659424 -0.211092 0)
(-0.0284731 -0.15539 0)
(-0.00571685 -0.0624428 0)
(-0.00613735 0.0722182 0)
(-0.0285824 0.172854 0)
(-0.0633175 0.229508 0)
(-0.0976198 0.249763 0)
(-0.125785 0.243322 0)
(-0.146858 0.218709 0)
(-0.161594 0.182376 0)
(-0.171396 0.138747 0)
(-0.177729 0.0905992 0)
(-0.181742 0.0395584 0)
(-0.18405 -0.0134062 0)
(-0.184622 -0.0674925 0)
(-0.182704 -0.121553 0)
(-0.176822 -0.173511 0)
(-0.164918 -0.219701 0)
(-0.14479 -0.254183 0)
(-0.114889 -0.268297 0)
(-0.0758996 -0.250919 0)
(-0.0347594 -0.190299 0)
(-0.00753506 -0.0790558 0)
(-0.00828274 0.0892393 0)
(-0.0349204 0.205784 0)
(-0.0714591 0.264432 0)
(-0.102807 0.27929 0)
(-0.124124 0.265066 0)
(-0.136396 0.233134 0)
(-0.142111 0.191187 0)
(-0.143943 0.143897 0)
(-0.144212 0.0937566 0)
(-0.144608 0.0418355 0)
(-0.146077 -0.0115902 0)
(-0.148766 -0.0665052 0)
(-0.151927 -0.122616 0)
(-0.153816 -0.178695 0)
(-0.151646 -0.231709 0)
(-0.141803 -0.2757 0)
(-0.120513 -0.300592 0)
(-0.085704 -0.291499 0)
(-0.0427261 -0.229918 0)
(-0.0102658 -0.0999012 0)
(-0.0118309 0.111057 0)
(-0.0436984 0.242291 0)
(-0.0794484 0.297324 0)
(-0.102622 0.301601 0)
(-0.111236 0.276554 0)
(-0.109496 0.236464 0)
(-0.102099 0.18974 0)
(-0.093003 0.140728 0)
(-0.0852015 0.0911951 0)
(-0.0807208 0.0413933 0)
(-0.0807185 -0.00924266 0)
(-0.0855301 -0.0615956 0)
(-0.0945894 -0.1164 0)
(-0.106205 -0.173624 0)
(-0.117253 -0.231502 0)
(-0.122958 -0.284984 0)
(-0.117022 -0.323549 0)
(-0.0932234 -0.328787 0)
(-0.0526297 -0.273396 0)
(-0.0144527 -0.126559 0)
(-0.0175291 0.140283 0)
(-0.0550871 0.281073 0)
(-0.0838785 0.3228 0)
(-0.0900328 0.309877 0)
(-0.0779876 0.271484 0)
(-0.0564157 0.22375 0)
(-0.0321656 0.174536 0)
(-0.00996349 0.126929 0)
(0.00711228 0.0814605 0)
(0.0171667 0.037374 0)
(0.0191148 -0.00673105 0)
(0.012492 -0.0525499 0)
(-0.00250966 -0.1018 0)
(-0.0247445 -0.155808 0)
(-0.0515356 -0.214653 0)
(-0.0778584 -0.275426 0)
(-0.0954603 -0.329047 0)
(-0.0930973 -0.355442 0)
(-0.0635257 -0.317834 0)
(-0.0205737 -0.161336 0)
(-0.0252383 0.181426 0)
(-0.065815 0.31733 0)
(-0.0742121 0.330235 0)
(-0.0497465 0.293689 0)
(-0.00811349 0.242184 0)
(0.0377593 0.190289 0)
(0.0803117 0.143127 0)
(0.115442 0.101426 0)
(0.141051 0.0641174 0)
(0.156087 0.0294826 0)
(0.159946 -0.00444708 0)
(0.15218 -0.0398101 0)
(0.132469 -0.0789254 0)
(0.100882 -0.124224 0)
(0.0585625 -0.177817 0)
(0.00904413 -0.240068 0)
(-0.0396757 -0.306078 0)
(-0.0726575 -0.358756 0)
(-0.070065 -0.355821 0)
(-0.027654 -0.207809 0)
(-0.0289838 0.238673 0)
(-0.0603307 0.335942 0)
(-0.0225664 0.300087 0)
(0.0492952 0.239206 0)
(0.125643 0.181793 0)
(0.194277 0.134181 0)
(0.250818 0.0962854 0)
(0.294052 0.0659563 0)
(0.32412 0.0407684 0)
(0.341476 0.0185482 0)
(0.346342 -0.00265909 0)
(0.338468 -0.0247929 0)
(0.317053 -0.0500359 0)
(0.280825 -0.0810962 0)
(0.22848 -0.121387 0)
(0.159873 -0.174605 0)
(0.0783101 -0.242493 0)
(-0.00405603 -0.318561 0)
(-0.0541399 -0.368518 0)
(-0.0277063 -0.26684 0)
(0.00962049 0.280905 0)
(0.021205 0.294777 0)
(0.138601 0.21074 0)
(0.263656 0.143106 0)
(0.36319 0.0967562 0)
(0.438617 0.0653435 0)
(0.494413 0.0438448 0)
(0.534039 0.0285773 0)
(0.560238 0.0170065 0)
(0.57489 0.00742548 0)
(0.578937 -0.00142018 0)
(0.572403 -0.0106519 0)
(0.554321 -0.0215597 0)
(0.522573 -0.0359847 0)
(0.473721 -0.0568757 0)
(0.402998 -0.0889882 0)
(0.303998 -0.139353 0)
(0.172622 -0.216035 0)
(0.0425797 -0.311216 0)
(0.0201018 -0.298836 0)
(0.300995 0.145493 0)
(0.397811 0.12707 0)
(0.557515 0.0758972 0)
(0.674344 0.043627 0)
(0.743564 0.0255135 0)
(0.786552 0.0152013 0)
(0.814616 0.00918219 0)
(0.832867 0.00549061 0)
(0.844144 0.00302268 0)
(0.850053 0.00116071 0)
(0.85135 -0.000473631 0)
(0.848142 -0.00217778 0)
(0.839898 -0.00429491 0)
(0.825225 -0.00737822 0)
(0.801383 -0.0124829 0)
(0.763155 -0.0217083 0)
(0.69879 -0.0391736 0)
(0.583838 -0.0724224 0)
(0.417301 -0.127326 0)
(0.310274 -0.148807 0)
)
;

boundaryField
{
    movingWall
    {
        type            fixedValue;
        value           uniform (1 0 0);
    }
    fixedWalls
    {
        type            noSlip;
    }
    frontAndBack
    {
        type            empty;
    }
}


// ************************************************************************* //
