/*--------------------------------*- C++ -*----------------------------------*\
  =========                 |
  \\      /  F ield         | OpenFOAM: The Open Source CFD Toolbox
   \\    /   O peration     | Website:  https://openfoam.org
    \\  /    A nd           | Version:  6
     \\/     M anipulation  |
\*---------------------------------------------------------------------------*/
FoamFile
{
    version     2.0;
    format      ascii;
    class       surfaceScalarField;
    location    "0.26";
    object      phi;
}
// * * * * * * * * * * * * * * * * * * * * * * * * * * * * * * * * * * * * * //

dimensions      [0 3 -1 0 0 0 0];

internalField   nonuniform List<scalar> 
760
(
1.88583e-09
-1.88577e-09
-3.52627e-08
3.71486e-08
-1.05198e-07
6.99354e-08
-1.9379e-07
8.85918e-08
-2.89652e-07
9.58624e-08
-3.84421e-07
9.4769e-08
-4.71679e-07
8.72574e-08
-5.45841e-07
7.4162e-08
-6.01385e-07
5.55437e-08
-6.32667e-07
3.12826e-08
-6.34417e-07
1.74966e-09
-6.02848e-07
-3.15687e-08
-5.3722e-07
-6.56278e-08
-4.41458e-07
-9.5762e-08
-3.25236e-07
-1.16222e-07
-2.03799e-07
-1.21437e-07
-9.59746e-08
-1.07824e-07
-2.0441e-08
-7.55336e-08
9.69992e-09
-3.01409e-08
9.69997e-09
-3.79922e-08
3.61064e-08
-1.54584e-07
1.5374e-07
-3.32611e-07
2.47962e-07
-5.47769e-07
3.0375e-07
-7.77499e-07
3.25592e-07
-1.00308e-06
3.20351e-07
-1.20897e-06
2.9315e-07
-1.38145e-06
2.46639e-07
-1.50757e-06
1.81664e-07
-1.57507e-06
9.87839e-08
-1.57341e-06
9.09637e-11
-1.49591e-06
-1.09075e-07
-1.34258e-06
-2.18957e-07
-1.12302e-06
-3.15318e-07
-8.58164e-07
-3.81079e-07
-5.79592e-07
-4.0001e-07
-3.25349e-07
-3.62067e-07
-1.32052e-07
-2.6883e-07
-2.40306e-08
-1.38163e-07
-1.43306e-08
-7.75613e-08
1.13668e-07
-2.6943e-07
3.45609e-07
-5.40335e-07
5.18867e-07
-8.56835e-07
6.20251e-07
-1.18942e-06
6.58177e-07
-1.51326e-06
6.44188e-07
-1.80725e-06
5.87143e-07
-2.05254e-06
4.91927e-07
-2.23141e-06
3.60536e-07
-2.32727e-06
1.9464e-07
-2.32592e-06
-1.25662e-09
-2.21824e-06
-2.16755e-07
-2.00378e-06
-4.3341e-07
-1.69463e-06
-6.24471e-07
-1.31802e-06
-7.57689e-07
-9.16008e-07
-8.02025e-07
-5.40333e-07
-7.37742e-07
-2.42092e-07
-5.67071e-07
-5.8139e-08
-3.22116e-07
-7.24695e-08
-1.09994e-07
2.23662e-07
-3.6831e-07
6.03924e-07
-7.2093e-07
8.71488e-07
-1.12439e-06
1.02372e-06
-1.54342e-06
1.0772e-06
-1.94931e-06
1.05008e-06
-2.31788e-06
9.55715e-07
-2.62735e-06
8.01398e-07
-2.85688e-06
5.90068e-07
-2.98632e-06
3.24072e-07
-2.99744e-06
9.86878e-09
-2.87694e-06
-3.37252e-07
-2.62087e-06
-6.89486e-07
-2.23994e-06
-1.0054e-06
-1.76422e-06
-1.23341e-06
-1.2445e-06
-1.32174e-06
-7.47415e-07
-1.23483e-06
-3.42674e-07
-9.71812e-07
-8.51147e-08
-5.79675e-07
-1.57584e-07
-1.37094e-07
3.60756e-07
-4.5387e-07
9.207e-07
-8.79673e-07
1.29729e-06
-1.36133e-06
1.50537e-06
-1.85857e-06
1.57444e-06
-2.34032e-06
1.53182e-06
-2.78106e-06
1.39646e-06
-3.15772e-06
1.17805e-06
-3.44733e-06
8.79677e-07
-3.62615e-06
5.02899e-07
-3.67054e-06
5.42577e-08
-3.55994e-06
-4.47851e-07
-3.2824e-06
-9.67032e-07
-2.84221e-06
-1.44559e-06
-2.26828e-06
-1.80735e-06
-1.61942e-06
-1.9706e-06
-9.81414e-07
-1.87283e-06
-4.51287e-07
-1.50194e-06
-1.10732e-07
-9.20229e-07
-2.68316e-07
-1.60978e-07
5.21734e-07
-5.30808e-07
1.29053e-06
-1.02427e-06
1.79075e-06
-1.57938e-06
2.06049e-06
-2.15187e-06
2.14693e-06
-2.70962e-06
2.08957e-06
-3.22743e-06
1.91427e-06
-3.68237e-06
1.63299e-06
-4.05027e-06
1.24758e-06
-4.30365e-06
7.56276e-07
-4.41157e-06
1.6218e-07
-4.34239e-06
-5.1703e-07
-4.07024e-06
-1.23918e-06
-3.58587e-06
-1.92996e-06
-2.91067e-06
-2.48255e-06
-2.1092e-06
-2.77207e-06
-1.29147e-06
-2.69057e-06
-5.94859e-07
-2.19855e-06
-1.43491e-07
-1.3716e-06
-4.11807e-07
-1.83311e-07
7.05045e-07
-6.03327e-07
1.71055e-06
-1.16147e-06
2.34889e-06
-1.78785e-06
2.68687e-06
-2.4353e-06
2.79437e-06
-3.0722e-06
2.72647e-06
-3.67541e-06
2.51748e-06
-4.22394e-06
2.18152e-06
-4.69371e-06
1.71735e-06
-5.05372e-06
1.11629e-06
-5.26432e-06
3.72776e-07
-5.27881e-06
-5.02539e-07
-5.05054e-06
-1.46745e-06
-4.54727e-06
-2.43323e-06
-3.77272e-06
-3.25709e-06
-2.79046e-06
-3.75433e-06
-1.73733e-06
-3.74369e-06
-8.07655e-07
-3.12822e-06
-1.93885e-07
-1.98537e-06
-6.05692e-07
-2.05264e-07
9.10309e-07
-6.74472e-07
2.17975e-06
-1.29577e-06
2.97019e-06
-1.99185e-06
3.38295e-06
-2.71376e-06
3.51629e-06
-3.43205e-06
3.44477e-06
-4.12773e-06
3.21315e-06
-4.78391e-06
2.83771e-06
-5.37865e-06
2.31208e-06
-5.87874e-06
1.61639e-06
-6.2356e-06
7.29632e-07
-6.38476e-06
-3.53375e-07
-6.25248e-06
-1.59973e-06
-5.77288e-06
-2.91283e-06
-4.91778e-06
-4.11219e-06
-3.73552e-06
-4.93659e-06
-2.38447e-06
-5.09474e-06
-1.13125e-06
-4.38144e-06
-2.75204e-07
-2.84142e-06
-8.80896e-07
-2.27659e-07
1.13797e-06
-7.46243e-07
2.69834e-06
-1.4293e-06
3.65325e-06
-2.19187e-06
4.14551e-06
-2.9841e-06
4.30852e-06
-3.78039e-06
4.24106e-06
-4.56803e-06
4.00079e-06
-5.33684e-06
3.60652e-06
-6.06974e-06
3.04498e-06
-6.73409e-06
2.28074e-06
-7.27447e-06
1.27002e-06
-7.60914e-06
-1.87071e-08
-7.63436e-06
-1.57451e-06
-7.24217e-06
-3.30502e-06
-6.35624e-06
-4.99813e-06
-4.98647e-06
-6.30635e-06
-3.29156e-06
-6.78965e-06
-1.61311e-06
-6.05989e-06
-4.04921e-07
-4.04961e-06
-1.28582e-06
-2.51422e-07
1.38939e-06
-8.20518e-07
3.26743e-06
-1.56292e-06
4.39566e-06
-2.38469e-06
4.96728e-06
-3.23557e-06
5.15939e-06
-4.0952e-06
5.10069e-06
-4.95907e-06
4.86466e-06
-5.82606e-06
4.47351e-06
-6.68716e-06
3.90608e-06
-7.51457e-06
3.10815e-06
-8.25144e-06
2.00689e-06
-8.8046e-06
5.34453e-07
-9.04484e-06
-1.33427e-06
-8.82116e-06
-3.5287e-06
-7.99649e-06
-5.8228e-06
-6.51241e-06
-7.79043e-06
-4.48453e-06
-8.81753e-06
-2.30034e-06
-8.24409e-06
-6.06741e-07
-5.74321e-06
-1.89256e-06
-2.78459e-07
1.66785e-06
-9.00894e-07
3.88987e-06
-1.69849e-06
5.19325e-06
-2.56573e-06
5.83452e-06
-3.45206e-06
6.04573e-06
-4.34336e-06
5.99199e-06
-5.24444e-06
5.76574e-06
-6.16483e-06
5.3939e-06
-7.10658e-06
4.84782e-06
-8.05211e-06
4.05368e-06
-8.95208e-06
2.90687e-06
-9.71472e-06
1.29709e-06
-1.02004e-05
-8.48596e-07
-1.02273e-05
-3.50178e-06
-9.59712e-06
-6.453e-06
-8.15577e-06
-9.23178e-06
-5.91263e-06
-1.10607e-05
-3.2216e-06
-1.09351e-05
-9.12187e-07
-8.05262e-06
-2.80474e-06
-3.1319e-07
1.98104e-06
-9.95691e-07
4.57237e-06
-1.84247e-06
6.04003e-06
-2.73278e-06
6.72484e-06
-3.61626e-06
6.9292e-06
-4.4859e-06
6.86164e-06
-5.35614e-06
6.63597e-06
-6.24754e-06
6.2853e-06
-7.17515e-06
5.77543e-06
-8.13733e-06
5.01586e-06
-9.1037e-06
3.87323e-06
-1.00025e-05
2.19593e-06
-1.07093e-05
-1.41809e-07
-1.10394e-05
-3.17165e-06
-1.07527e-05
-6.73974e-06
-9.59058e-06
-1.03939e-05
-7.39206e-06
-1.32592e-05
-4.34776e-06
-1.39794e-05
-1.35658e-06
-1.10438e-05
-4.16132e-06
-3.65257e-07
2.3463e-06
-1.1225e-06
5.32961e-06
-2.01047e-06
6.928e-06
-2.8901e-06
7.60446e-06
-3.71418e-06
7.75329e-06
-4.48509e-06
7.63255e-06
-5.22704e-06
7.37792e-06
-5.97103e-06
7.02929e-06
-6.74578e-06
6.55018e-06
-7.56999e-06
5.84007e-06
-8.44318e-06
4.74642e-06
-9.3336e-06
3.08635e-06
-1.01621e-05
6.86693e-07
-1.07809e-05
-2.55289e-06
-1.09502e-05
-6.57039e-06
-1.0333e-05
-1.10111e-05
-8.56626e-06
-1.50259e-05
-5.53256e-06
-1.70131e-05
-1.95827e-06
-1.46181e-05
-6.11959e-06
-4.54479e-07
2.80078e-06
-1.31457e-06
6.1897e-06
-2.23108e-06
7.84451e-06
-3.04907e-06
8.42245e-06
-3.73471e-06
8.43893e-06
-4.306e-06
8.20383e-06
-4.79875e-06
7.87068e-06
-5.25397e-06
7.4845e-06
-5.71351e-06
7.00973e-06
-6.2179e-06
6.34445e-06
-6.8024e-06
5.33092e-06
-7.48853e-06
3.77247e-06
-8.26685e-06
1.46502e-06
-9.06626e-06
-1.75348e-06
-9.70579e-06
-5.93086e-06
-9.8371e-06
-1.08798e-05
-8.92968e-06
-1.59333e-05
-6.4638e-06
-1.9479e-05
-2.67191e-06
-1.841e-05
-8.7915e-06
-6.19898e-07
3.42067e-06
-1.62826e-06
7.19806e-06
-2.543e-06
8.75926e-06
-3.21483e-06
9.09428e-06
-3.64899e-06
8.87309e-06
-3.89281e-06
8.44766e-06
-3.9993e-06
7.97717e-06
-4.02056e-06
7.50577e-06
-4.01021e-06
6.99938e-06
-4.02776e-06
6.36201e-06
-4.14141e-06
5.44457e-06
-4.42542e-06
4.05649e-06
-4.94724e-06
1.98684e-06
-5.73669e-06
-9.64025e-07
-6.72682e-06
-4.94073e-06
-7.65462e-06
-9.95202e-06
-7.93605e-06
-1.56519e-05
-6.67301e-06
-2.0742e-05
-3.32915e-06
-2.17538e-05
-1.21207e-05
-9.34263e-07
4.35494e-06
-2.14284e-06
8.40664e-06
-2.96232e-06
9.57873e-06
-3.32507e-06
9.45703e-06
-3.32887e-06
8.87689e-06
-3.0738e-06
8.19259e-06
-2.63924e-06
7.54261e-06
-2.09045e-06
6.95698e-06
-1.48977e-06
6.39869e-06
-9.08087e-07
5.78033e-06
-4.34517e-07
4.971e-06
-1.80958e-07
3.80293e-06
-2.77262e-07
2.08314e-06
-8.50312e-07
-3.90975e-07
-1.9741e-06
-3.81694e-06
-3.56058e-06
-8.36554e-06
-5.14327e-06
-1.40692e-05
-5.62116e-06
-2.02641e-05
-3.60483e-06
-2.37702e-05
-1.57255e-05
-1.51682e-06
5.87176e-06
-2.89665e-06
9.78646e-06
-3.32443e-06
1.00065e-05
-3.02904e-06
9.16164e-06
-2.29225e-06
8.14011e-06
-1.29228e-06
7.19261e-06
-1.37573e-07
6.38789e-06
1.09889e-06
5.72052e-06
2.3561e-06
5.14148e-06
3.56601e-06
4.57041e-06
4.63751e-06
3.8995e-06
5.445e-06
2.99543e-06
5.82453e-06
1.70362e-06
5.58092e-06
-1.47373e-07
4.51492e-06
-2.75094e-06
2.50202e-06
-6.35264e-06
-2.74584e-07
-1.12926e-05
-2.81015e-06
-1.77286e-05
-3.03722e-06
-2.35431e-05
-1.87627e-05
-2.48366e-06
8.35542e-06
-3.45809e-06
1.07609e-05
-2.62427e-06
9.1727e-06
-9.69376e-07
7.50674e-06
9.75673e-07
6.19506e-06
2.99807e-06
5.17021e-06
5.00696e-06
4.37901e-06
6.9569e-06
3.77058e-06
8.81604e-06
3.28234e-06
1.05431e-05
2.84334e-06
1.20682e-05
2.37437e-06
1.32779e-05
1.78572e-06
1.40048e-05
9.76743e-07
1.40229e-05
-1.65414e-07
1.30509e-05
-1.779e-06
1.07799e-05
-4.08165e-06
7.01698e-06
-7.52967e-06
2.29053e-06
-1.30021e-05
-1.08637e-06
-2.01662e-05
-1.98491e-05
-2.93686e-06
1.12923e-05
-6.35981e-07
8.46001e-06
3.24957e-06
5.28715e-06
6.95341e-06
3.80291e-06
1.02474e-05
2.90102e-06
1.31673e-05
2.25031e-06
1.57607e-05
1.7857e-06
1.8074e-05
1.4572e-06
2.01429e-05
1.21343e-06
2.19764e-05
1.00993e-06
2.3544e-05
8.06687e-07
2.47657e-05
5.64089e-07
2.55009e-05
2.41528e-07
2.55388e-05
-2.03363e-07
2.4582e-05
-8.22118e-07
2.2216e-05
-1.71568e-06
1.78843e-05
-3.19796e-06
1.11632e-05
-6.28101e-06
3.32091e-06
-1.23239e-05
-1.65282e-05
1.12923e-05
1.97523e-05
2.50394e-05
2.88423e-05
3.17434e-05
3.39937e-05
3.57794e-05
3.72366e-05
3.845e-05
3.94599e-05
4.02666e-05
4.08307e-05
4.10722e-05
4.08689e-05
4.00468e-05
3.83311e-05
3.51331e-05
2.88521e-05
1.65282e-05
)
;

boundaryField
{
    movingWall
    {
        type            calculated;
        value           uniform 0;
    }
    fixedWalls
    {
        type            calculated;
        value           uniform 0;
    }
    frontAndBack
    {
        type            empty;
        value           nonuniform 0();
    }
}


// ************************************************************************* //
