/*--------------------------------*- C++ -*----------------------------------*\
  =========                 |
  \\      /  F ield         | OpenFOAM: The Open Source CFD Toolbox
   \\    /   O peration     | Website:  https://openfoam.org
    \\  /    A nd           | Version:  6
     \\/     M anipulation  |
\*---------------------------------------------------------------------------*/
FoamFile
{
    version     2.0;
    format      ascii;
    class       volScalarField;
    location    "0.015";
    object      p;
}
// * * * * * * * * * * * * * * * * * * * * * * * * * * * * * * * * * * * * * //

dimensions      [0 2 -2 0 0 0 0];

internalField   nonuniform List<scalar> 
400
(
8.99368e-07
-0.0340244
-0.07625
-0.108626
-0.120386
-0.106706
-0.0672505
-0.00491009
0.0752268
0.166645
0.262011
0.353689
0.434248
0.497015
0.536736
0.550416
0.538399
0.505634
0.463107
0.42903
0.033815
-0.00115708
-0.0342972
-0.0565725
-0.0626585
-0.0491615
-0.0156636
0.035744
0.101192
0.175597
0.25315
0.327774
0.39358
0.445352
0.47908
0.492585
0.486286
0.463681
0.430284
0.395289
0.078696
0.0301627
-0.00579002
-0.0263828
-0.031286
-0.0186393
0.0115059
0.0571179
0.114795
0.180169
0.24827
0.313892
0.371977
0.418013
0.448443
0.461131
0.456016
0.435063
0.398816
0.350261
0.120024
0.0527472
0.00789532
-0.0157006
-0.0218005
-0.00990437
0.0192293
0.0631941
0.118555
0.181149
0.246334
0.309264
0.365187
0.409757
0.439337
0.451372
0.445069
0.421037
0.375773
0.308396
0.148303
0.0610962
0.00554005
-0.0223396
-0.0298182
-0.0176094
0.0127415
0.0582545
0.115209
0.179378
0.246171
0.310822
0.3686
0.415035
0.446131
0.458687
0.451075
0.422678
0.36652
0.279015
0.156713
0.0489955
-0.0178019
-0.0498643
-0.0577094
-0.0432174
-0.0088048
0.041816
0.104451
0.174613
0.247568
0.318432
0.38229
0.43433
0.469982
0.485205
0.477411
0.444785
0.377128
0.26876
0.139267
0.0102251
-0.0677199
-0.102816
-0.108928
-0.0892185
-0.0471277
0.0127336
0.0855459
0.166425
0.250376
0.332277
0.406896
0.468925
0.513029
0.534115
0.528439
0.492826
0.413712
0.28346
0.0894736
-0.0620995
-0.150507
-0.186349
-0.187394
-0.158415
-0.104132
-0.0302419
0.0576923
0.154333
0.254396
0.352504
0.443073
0.520217
0.577677
0.609063
0.609156
0.573031
0.483126
0.329535
-0.000757052
-0.176441
-0.273845
-0.306707
-0.297798
-0.254108
-0.182015
-0.0885191
0.020008
0.137811
0.259411
0.379287
0.491585
0.589854
0.666807
0.714475
0.725702
0.693119
0.593944
0.415159
-0.142171
-0.343763
-0.447373
-0.471413
-0.445521
-0.379859
-0.282976
-0.16339
-0.0282624
0.116408
0.2652
0.412728
0.553121
0.679522
0.783601
0.855528
0.885602
0.862923
0.757454
0.55142
-0.349607
-0.578744
-0.683333
-0.689357
-0.636339
-0.539002
-0.408681
-0.255557
-0.0873962
0.0899393
0.27156
0.452719
0.62801
0.79056
0.931164
1.03794
1.09791
1.0951
0.988965
0.753882
-0.644432
-0.901614
-0.997352
-0.970709
-0.87583
-0.733852
-0.559478
-0.364472
-0.15671
0.0587636
0.278361
0.498768
0.715838
0.923403
1.11191
1.26748
1.3732
1.406
1.30975
1.04519
-1.0592
-1.34106
-1.4093
-1.32641
-1.16823
-0.96441
-0.733231
-0.487413
-0.233931
0.0241236
0.285595
0.54975
0.814878
1.07673
1.32651
1.54904
1.72323
1.81661
1.75009
1.45995
-1.64732
-1.93896
-1.94374
-1.76653
-1.51414
-1.22619
-0.923589
-0.618271
-0.314431
-0.0114951
0.293362
0.603486
0.921214
1.24605
1.57202
1.88454
2.15936
2.35309
2.35411
2.05477
-2.503
-2.75728
-2.62826
-2.2957
-1.90588
-1.50653
-1.11744
-0.745986
-0.390419
-0.0441022
0.301661
0.656025
1.02732
1.42136
1.83833
2.26839
2.68814
3.04515
3.18676
2.92855
-3.79544
-3.88406
-3.48741
-2.90542
-2.32113
-1.78034
-1.29261
-0.853549
-0.450693
-0.068366
0.309955
0.700874
1.12071
1.58461
2.10397
2.68127
3.30364
3.91985
4.3394
4.25656
-5.82873
-5.4334
-4.53116
-3.56751
-2.72019
-2.00979
-1.41901
-0.919773
-0.482317
-0.078779
0.316672
0.72908
1.18421
1.70973
2.33493
3.08689
3.98056
4.98976
5.9292
6.34932
-9.28237
-7.54959
-5.69644
-4.18882
-3.01938
-2.13045
-1.4524
-0.917182
-0.470532
-0.0705524
0.317627
0.726659
1.19146
1.75398
2.46852
3.40332
4.62738
6.19394
8.10512
9.8947
-15.9302
-10.323
-6.56664
-4.38533
-2.9502
-1.97053
-1.2887
-0.786383
-0.385731
-0.0357624
0.301682
0.661069
1.08062
1.61145
2.33167
3.36091
4.85938
7.11754
10.9632
16.6724
-27.0774
-12.9905
-6.27859
-3.59135
-2.19999
-1.37239
-0.851811
-0.492244
-0.213893
0.0273824
0.261029
0.512614
0.811559
1.20186
1.76305
2.64269
4.10501
6.8894
13.7154
27.917
)
;

boundaryField
{
    movingWall
    {
        type            zeroGradient;
    }
    fixedWalls
    {
        type            zeroGradient;
    }
    frontAndBack
    {
        type            empty;
    }
}


// ************************************************************************* //
