/*--------------------------------*- C++ -*----------------------------------*\
  =========                 |
  \\      /  F ield         | OpenFOAM: The Open Source CFD Toolbox
   \\    /   O peration     | Website:  https://openfoam.org
    \\  /    A nd           | Version:  6
     \\/     M anipulation  |
\*---------------------------------------------------------------------------*/
FoamFile
{
    version     2.0;
    format      ascii;
    class       volScalarField;
    location    "0.085";
    object      p;
}
// * * * * * * * * * * * * * * * * * * * * * * * * * * * * * * * * * * * * * //

dimensions      [0 2 -2 0 0 0 0];

internalField   nonuniform List<scalar> 
400
(
3.65395e-08
-0.000353652
-0.00057866
-0.000522961
-0.000163593
0.000487973
0.00140556
0.00255518
0.00389687
0.00538334
0.00695817
0.00855501
0.010098
0.0115041
0.012687
0.0135657
0.0140778
0.0141989
0.0139677
0.0135791
0.000352362
-1.23932e-05
-0.000169047
-6.39248e-05
0.000295596
0.000907766
0.00175899
0.00282409
0.00406906
0.0054509
0.00691679
0.00840408
0.00984136
0.0111513
0.0122558
0.0130849
0.0135907
0.0137593
0.0135976
0.0131965
0.000591133
0.000118358
-5.57713e-05
5.63707e-05
0.000410415
0.00100274
0.001824
0.00285346
0.00406129
0.00540794
0.0068432
0.00830613
0.00972617
0.011026
0.0121267
0.0129569
0.0134683
0.0136426
0.0134512
0.0129267
0.000554312
-3.64445e-05
-0.000258091
-0.000157575
0.00019241
0.00078358
0.00160729
0.00264491
0.0038694
0.00524366
0.00671889
0.00823394
0.00971583
0.0110822
0.0122464
0.013127
0.0136659
0.0138344
0.0135787
0.0129127
0.000186759
-0.0005082
-0.000777721
-0.000688543
-0.000334027
0.000273857
0.0011269
0.00220823
0.00349321
0.00494684
0.00652112
0.00815337
0.00976587
0.0112674
0.0125579
0.0135393
0.0141373
0.0143102
0.0139862
0.0131806
-0.000546989
-0.00134405
-0.00166025
-0.0015768
-0.00120523
-0.000560671
0.000349305
0.00150979
0.00289888
0.00448397
0.00621791
0.00803606
0.00985428
0.0115689
0.0130606
0.0142068
0.0149084
0.0151048
0.0147067
0.0137417
-0.00168281
-0.00259395
-0.00295872
-0.00287386
-0.00247128
-0.00176977
-0.000776019
0.000497684
0.00203314
0.00380135
0.00575729
0.00783514
0.00994394
0.0119648
0.0137527
0.0151495
0.0160188
0.0162693
0.0157849
0.0146119
-0.00326813
-0.0043168
-0.00473513
-0.00464124
-0.0041938
-0.00341669
-0.00231547
-0.000898707
0.000820863
0.00282022
0.00505928
0.00747396
0.0099684
0.0124076
0.0146144
0.0163819
0.0175158
0.017872
0.0172844
0.0158192
-0.00536978
-0.00658984
-0.00706918
-0.00695793
-0.00645217
-0.00558346
-0.00435597
-0.0027731
-0.000839643
0.00143087
0.00400807
0.00683551
0.00981839
0.012809
0.0155945
0.017903
0.0194537
0.0200094
0.0193037
0.0174112
-0.00808025
-0.00951666
-0.0100649
-0.00992475
-0.00934622
-0.00837244
-0.00700595
-0.0052433
-0.0030786
-0.000511544
0.00244387
0.00574841
0.00932064
0.0130122
0.0165789
0.0196712
0.0218824
0.022815
0.0220002
0.0194716
-0.0115273
-0.0132377
-0.013858
-0.0136681
-0.0129973
-0.0119056
-0.0103931
-0.00844827
-0.00605206
-0.00318643
0.000158489
0.00397385
0.00821201
0.0127504
0.0173381
0.0215502
0.0248131
0.0264622
0.0256298
0.0221655
-0.0158926
-0.0179472
-0.018626
-0.0183438
-0.0175478
-0.01632
-0.014657
-0.0125374
-0.00992901
-0.00679448
-0.00309472
0.0012056
0.00612059
0.0116002
0.0174471
0.0232104
0.0281358
0.0311424
0.0306089
0.0258592
-0.0214516
-0.0239234
-0.024602
-0.0241382
-0.0231542
-0.0217556
-0.0199293
-0.0176439
-0.0148568
-0.0115161
-0.00755512
-0.00288724
0.00259098
0.00896592
0.0162074
0.0239866
0.0314617
0.0369834
0.0375941
0.0313993
-0.028657
-0.0315804
-0.0320884
-0.0312593
-0.0299657
-0.0283214
-0.0262891
-0.023826
-0.0208868
-0.0174175
-0.0133391
-0.00852352
-0.00276847
0.00420803
0.012701
0.0227995
0.0339187
0.043852
0.0475329
0.040655
-0.0383235
-0.0415532
-0.0414501
-0.0398871
-0.0380543
-0.036011
-0.0336624
-0.03095
-0.0278359
-0.0242837
-0.0202294
-0.0155356
-0.00992713
-0.0029113
0.00627186
0.0185302
0.0342274
0.0511262
0.0615639
0.0572034
-0.052023
-0.0548193
-0.0530254
-0.0500145
-0.0472302
-0.0445022
-0.0416154
-0.0384838
-0.0350813
-0.0314029
-0.0274219
-0.0230262
-0.0179139
-0.0114224
-0.00229139
0.0114958
0.0320573
0.0584042
0.0811802
0.0867369
-0.0729846
-0.0727957
-0.066863
-0.0611156
-0.0566757
-0.0527933
-0.0490336
-0.0452449
-0.0413866
-0.0374626
-0.0334646
-0.0292919
-0.0246114
-0.0186035
-0.00954425
0.00567884
0.0312839
0.0690674
0.111073
0.13879
-0.109086
-0.0969703
-0.081764
-0.0712287
-0.0641198
-0.0585692
-0.0537383
-0.0492642
-0.0449823
-0.0408249
-0.0367296
-0.0325228
-0.027735
-0.0212651
-0.0108238
0.00776408
0.0407218
0.0938012
0.165637
0.236237
-0.183967
-0.125948
-0.0896593
-0.0726758
-0.0632998
-0.0568788
-0.0519528
-0.0477589
-0.0438609
-0.0400595
-0.0362101
-0.0320275
-0.0268372
-0.0191577
-0.00598676
0.0182167
0.0624746
0.138947
0.261777
0.421903
-0.343903
-0.148248
-0.0720121
-0.0535908
-0.047342
-0.0436804
-0.0413828
-0.0395632
-0.0375997
-0.0352737
-0.0324843
-0.0289617
-0.023984
-0.0159384
-0.00152961
0.0256442
0.0779561
0.178647
0.368088
0.680314
)
;

boundaryField
{
    movingWall
    {
        type            zeroGradient;
    }
    fixedWalls
    {
        type            zeroGradient;
    }
    frontAndBack
    {
        type            empty;
    }
}


// ************************************************************************* //
