/*--------------------------------*- C++ -*----------------------------------*\
  =========                 |
  \\      /  F ield         | OpenFOAM: The Open Source CFD Toolbox
   \\    /   O peration     | Website:  https://openfoam.org
    \\  /    A nd           | Version:  6
     \\/     M anipulation  |
\*---------------------------------------------------------------------------*/
FoamFile
{
    version     2.0;
    format      ascii;
    class       surfaceScalarField;
    location    "0.105";
    object      phi;
}
// * * * * * * * * * * * * * * * * * * * * * * * * * * * * * * * * * * * * * //

dimensions      [0 3 -1 0 0 0 0];

internalField   nonuniform List<scalar> 
760
(
-4.79738e-09
4.7971e-09
-4.91974e-08
4.44e-08
-1.19454e-07
7.02561e-08
-1.99383e-07
7.99294e-08
-2.7871e-07
7.93276e-08
-3.51542e-07
7.28312e-08
-4.1434e-07
6.27985e-08
-4.64604e-07
5.02637e-08
-5.00198e-07
3.55945e-08
-5.19148e-07
1.89494e-08
-5.19681e-07
5.33512e-10
-5.00421e-07
-1.92604e-08
-4.60685e-07
-3.97363e-08
-4.00938e-07
-5.97465e-08
-3.23473e-07
-7.74655e-08
-2.33385e-07
-9.00883e-08
-1.39822e-07
-9.35627e-08
-5.7287e-08
-8.25348e-08
-5.71018e-09
-5.15768e-08
-5.71013e-09
-4.50144e-08
4.98114e-08
-1.62035e-07
1.61421e-07
-3.23797e-07
2.32018e-07
-5.03409e-07
2.59541e-07
-6.81047e-07
2.56966e-07
-8.43809e-07
2.35593e-07
-9.83308e-07
2.02297e-07
-1.09357e-06
1.60522e-07
-1.16981e-06
1.11836e-07
-1.20799e-06
5.71304e-08
-1.2048e-06
-2.65465e-09
-1.15798e-06
-6.60804e-08
-1.06688e-06
-1.30835e-07
-9.33347e-07
-1.93282e-07
-7.62981e-07
-2.47831e-07
-5.66867e-07
-2.86202e-07
-3.63477e-07
-2.96953e-07
-1.79785e-07
-2.66226e-07
-4.88466e-08
-1.82515e-07
-5.45567e-08
-7.56566e-08
1.25468e-07
-2.47613e-07
3.33377e-07
-4.73241e-07
4.57646e-07
-7.1848e-07
5.0478e-07
-9.58801e-07
4.97287e-07
-1.1779e-06
4.54691e-07
-1.36489e-06
3.89289e-07
-1.51193e-06
3.07563e-07
-1.61281e-06
2.12719e-07
-1.66239e-06
1.06703e-07
-1.65652e-06
-8.52561e-09
-1.59243e-06
-1.30162e-07
-1.46944e-06
-2.53832e-07
-1.29e-06
-3.72722e-07
-1.06137e-06
-4.76453e-07
-7.97733e-07
-5.49844e-07
-5.22387e-07
-5.72299e-07
-2.69037e-07
-5.19577e-07
-7.97984e-08
-3.71753e-07
-1.34355e-07
-9.52336e-08
2.20702e-07
-3.07039e-07
5.45182e-07
-5.79576e-07
7.30184e-07
-8.71983e-07
7.97187e-07
-1.15638e-06
7.81684e-07
-1.41466e-06
7.12969e-07
-1.6348e-06
6.09431e-07
-1.80811e-06
4.80873e-07
-1.92763e-06
3.32238e-07
-1.98746e-06
1.66535e-07
-1.98269e-06
-1.32984e-08
-1.90972e-06
-2.03129e-07
-1.76711e-06
-3.96442e-07
-1.55692e-06
-5.82915e-07
-1.28676e-06
-7.46615e-07
-9.72493e-07
-8.64109e-07
-6.41143e-07
-9.03649e-07
-3.32745e-07
-8.27974e-07
-9.92372e-08
-6.05261e-07
-2.33592e-07
-1.0955e-07
3.30251e-07
-3.53267e-07
7.88899e-07
-6.64695e-07
1.04161e-06
-9.96531e-07
1.12902e-06
-1.31784e-06
1.10299e-06
-1.60925e-06
1.00438e-06
-1.8582e-06
8.58382e-07
-2.05564e-06
6.78315e-07
-2.19416e-06
4.70761e-07
-2.26716e-06
2.39536e-07
-2.26866e-06
-1.18027e-08
-2.19362e-06
-2.78165e-07
-2.03892e-06
-5.51147e-07
-1.80504e-06
-8.16798e-07
-1.49884e-06
-1.05281e-06
-1.13731e-06
-1.22564e-06
-7.51546e-07
-1.28941e-06
-3.8955e-07
-1.18997e-06
-1.14987e-07
-8.79824e-07
-3.48579e-07
-1.23122e-07
4.53373e-07
-3.97828e-07
1.06361e-06
-7.47732e-07
1.39152e-06
-1.11902e-06
1.50031e-06
-1.47765e-06
1.46162e-06
-1.80313e-06
1.32986e-06
-2.08269e-06
1.13794e-06
-2.30721e-06
9.02835e-07
-2.469e-06
6.32552e-07
-2.5607e-06
3.31233e-07
-2.57488e-06
2.38562e-09
-2.50433e-06
-3.48715e-07
-2.34304e-06
-7.12438e-07
-2.08846e-06
-1.07138e-06
-1.74531e-06
-1.39596e-06
-1.33096e-06
-1.64e-06
-8.81471e-07
-1.7389e-06
-4.55647e-07
-1.61579e-06
-1.32809e-07
-1.20266e-06
-4.81388e-07
-1.38839e-07
5.92212e-07
-4.48729e-07
1.3735e-06
-8.42096e-07
1.78488e-06
-1.25788e-06
1.91609e-06
-1.65866e-06
1.86241e-06
-2.02301e-06
1.6942e-06
-2.33822e-06
1.45316e-06
-2.59551e-06
1.16012e-06
-2.78715e-06
8.24197e-07
-2.9051e-06
4.49179e-07
-2.9402e-06
3.74904e-08
-2.88222e-06
-4.06692e-07
-2.72084e-06
-8.73819e-07
-2.44839e-06
-1.34383e-06
-2.06511e-06
-1.77925e-06
-1.58713e-06
-2.11798e-06
-1.05595e-06
-2.27008e-06
-5.45203e-07
-2.12654e-06
-1.57034e-07
-1.59083e-06
-6.38422e-07
-1.58579e-07
7.50791e-07
-5.11362e-07
1.72628e-06
-9.56712e-07
2.23023e-06
-1.42492e-06
2.3843e-06
-1.87488e-06
2.31237e-06
-2.28448e-06
2.1038e-06
-2.64167e-06
1.81034e-06
-2.93857e-06
1.45701e-06
-3.16804e-06
1.05366e-06
-3.32168e-06
6.02822e-07
-3.38861e-06
1.04426e-07
-3.3549e-06
-4.40409e-07
-3.20418e-06
-1.02454e-06
-2.92073e-06
-1.62728e-06
-2.49632e-06
-2.20365e-06
-1.94206e-06
-2.67224e-06
-1.3038e-06
-2.90834e-06
-6.74904e-07
-2.75544e-06
-1.92477e-07
-2.07326e-06
-8.30899e-07
-1.8389e-07
9.34681e-07
-5.90068e-07
2.13246e-06
-1.09839e-06
2.73855e-06
-1.62847e-06
2.91438e-06
-2.13524e-06
2.81914e-06
-2.59649e-06
2.56505e-06
-3.00175e-06
2.2156e-06
-3.34508e-06
1.80034e-06
-3.62092e-06
1.32951e-06
-3.82147e-06
8.03372e-07
-3.93466e-06
2.17614e-07
-3.94259e-06
-4.32478e-07
-3.82118e-06
-1.14594e-06
-3.54276e-06
-1.90571e-06
-3.08424e-06
-2.66217e-06
-2.44397e-06
-3.31251e-06
-1.66701e-06
-3.68529e-06
-8.70948e-07
-3.5515e-06
-2.47182e-07
-2.69702e-06
-1.07808e-06
-2.16672e-07
1.15135e-06
-6.89727e-07
2.60551e-06
-1.27406e-06
3.32289e-06
-1.876e-06
3.51632e-06
-2.44648e-06
3.38962e-06
-2.96431e-06
3.08288e-06
-3.42198e-06
2.67328e-06
-3.81703e-06
2.19539e-06
-4.14711e-06
1.65958e-06
-4.40668e-06
1.06294e-06
-4.58402e-06
3.94953e-07
-4.6581e-06
-3.58397e-07
-4.59613e-06
-1.2079e-06
-4.35412e-06
-2.14772e-06
-3.88491e-06
-3.13138e-06
-3.1602e-06
-4.03722e-06
-2.21091e-06
-4.63458e-06
-1.17855e-06
-4.58386e-06
-3.36769e-07
-3.5388e-06
-1.41485e-06
-2.59961e-07
1.41131e-06
-8.17351e-07
3.1629e-06
-1.4927e-06
3.99824e-06
-2.17595e-06
4.19956e-06
-2.81468e-06
4.02836e-06
-3.39052e-06
3.65872e-06
-3.90094e-06
3.1837e-06
-4.34897e-06
2.64343e-06
-4.73772e-06
2.04833e-06
-5.06655e-06
1.39177e-06
-5.327e-06
6.55407e-07
-5.49762e-06
-1.87775e-07
-5.53797e-06
-1.16756e-06
-5.38448e-06
-2.30121e-06
-4.95483e-06
-3.56102e-06
-4.17278e-06
-4.81927e-06
-3.02795e-06
-5.77941e-06
-1.67148e-06
-5.94033e-06
-4.90948e-07
-4.71933e-06
-1.9058e-06
-3.19059e-07
1.73037e-06
-9.83964e-07
3.82781e-06
-1.76691e-06
4.78118e-06
-2.53833e-06
4.97099e-06
-3.24453e-06
4.73455e-06
-3.8729e-06
4.28708e-06
-4.42844e-06
3.73925e-06
-4.92209e-06
3.13707e-06
-5.36504e-06
2.49128e-06
-5.76494e-06
1.79166e-06
-6.12101e-06
1.01148e-06
-6.41662e-06
1.07834e-07
-6.60848e-06
-9.75703e-07
-6.61449e-06
-2.2952e-06
-6.30841e-06
-3.86711e-06
-5.54046e-06
-5.58722e-06
-4.21526e-06
-7.10461e-06
-2.45034e-06
-7.70526e-06
-7.60753e-07
-6.40892e-06
-2.66655e-06
-4.03484e-07
2.13386e-06
-1.20699e-06
4.63131e-06
-2.11355e-06
5.68774e-06
-2.9726e-06
5.83005e-06
-3.73415e-06
5.49611e-06
-4.39597e-06
4.9489e-06
-4.97375e-06
4.31703e-06
-5.48867e-06
3.65199e-06
-5.96248e-06
2.96509e-06
-6.41441e-06
2.24359e-06
-6.85636e-06
1.45343e-06
-7.28394e-06
5.35412e-07
-7.66073e-06
-5.98915e-07
-7.89569e-06
-2.06023e-06
-7.82126e-06
-3.94154e-06
-7.19718e-06
-6.2113e-06
-5.79166e-06
-8.51014e-06
-3.6031e-06
-9.89382e-06
-1.21943e-06
-8.79258e-06
-3.88598e-06
-5.30485e-07
2.66434e-06
-1.51285e-06
5.61367e-06
-2.55103e-06
6.72593e-06
-3.47786e-06
6.75688e-06
-4.25816e-06
6.27641e-06
-4.9074e-06
5.59813e-06
-5.45575e-06
4.86538e-06
-5.9367e-06
4.13294e-06
-6.38389e-06
3.41229e-06
-6.82966e-06
2.68935e-06
-7.30176e-06
1.92553e-06
-7.815e-06
1.04865e-06
-8.35316e-06
-6.07488e-08
-8.83754e-06
-1.57586e-06
-9.0853e-06
-3.69377e-06
-8.78194e-06
-6.51466e-06
-7.53097e-06
-9.76111e-06
-5.09259e-06
-1.23322e-05
-1.93857e-06
-1.19466e-05
-5.82455e-06
-7.31344e-07
3.39569e-06
-1.93776e-06
6.82009e-06
-3.08502e-06
7.87319e-06
-4.01174e-06
7.6836e-06
-4.72131e-06
6.98598e-06
-5.259e-06
6.13582e-06
-5.67486e-06
5.28124e-06
-6.01641e-06
4.47449e-06
-6.32848e-06
3.72436e-06
-6.65421e-06
3.01508e-06
-7.035e-06
2.30632e-06
-7.50629e-06
1.51994e-06
-8.08348e-06
5.16435e-07
-8.73013e-06
-9.2921e-07
-9.30354e-06
-3.12036e-06
-9.48803e-06
-6.33016e-06
-8.76555e-06
-1.04836e-05
-6.5629e-06
-1.45349e-05
-2.90133e-06
-1.56082e-05
-8.72588e-06
-1.06147e-06
4.45716e-06
-2.5173e-06
8.27591e-06
-3.65809e-06
9.01398e-06
-4.40329e-06
8.4288e-06
-4.84388e-06
7.42657e-06
-5.07524e-06
6.36718e-06
-5.17481e-06
5.38081e-06
-5.20509e-06
4.50478e-06
-5.21819e-06
3.73746e-06
-5.26033e-06
3.05722e-06
-5.37648e-06
2.42247e-06
-5.61367e-06
1.75713e-06
-6.01899e-06
9.21755e-07
-6.62263e-06
-3.25567e-07
-7.39049e-06
-2.3525e-06
-8.12965e-06
-5.591e-06
-8.34638e-06
-1.02669e-05
-7.16472e-06
-1.57165e-05
-3.8215e-06
-1.89514e-05
-1.25474e-05
-1.61112e-06
6.06829e-06
-3.21716e-06
9.88195e-06
-3.98184e-06
9.77866e-06
-4.1207e-06
8.56765e-06
-3.90175e-06
7.20762e-06
-3.49443e-06
5.95987e-06
-3.00439e-06
4.89076e-06
-2.50124e-06
4.00163e-06
-2.0324e-06
3.26862e-06
-1.63284e-06
2.65766e-06
-1.33469e-06
2.12432e-06
-1.17834e-06
1.60078e-06
-1.22558e-06
9.68998e-07
-1.56969e-06
1.85434e-08
-2.32246e-06
-1.59973e-06
-3.53206e-06
-4.38141e-06
-4.95328e-06
-8.84563e-06
-5.64752e-06
-1.50223e-05
-3.98238e-06
-2.06165e-05
-1.65298e-05
-2.47693e-06
8.54522e-06
-3.55004e-06
1.09551e-05
-2.94951e-06
9.17813e-06
-1.65743e-06
7.27558e-06
-1.88429e-07
5.73862e-06
1.2574e-06
4.51404e-06
2.59642e-06
3.55175e-06
3.79157e-06
2.80648e-06
4.83034e-06
2.22985e-06
5.71127e-06
1.77672e-06
6.43207e-06
1.40352e-06
6.97555e-06
1.0573e-06
7.28801e-06
6.56542e-07
7.24632e-06
6.02307e-08
6.62354e-06
-9.76947e-07
5.10229e-06
-2.86015e-06
2.47289e-06
-6.21624e-06
-7.31916e-07
-1.18175e-05
-2.35398e-06
-1.89945e-05
-1.88837e-05
-2.82877e-06
1.1374e-05
-4.51679e-07
8.57797e-06
3.38296e-06
5.34348e-06
6.89352e-06
3.76502e-06
9.86167e-06
2.77046e-06
1.23376e-05
2.03808e-06
1.43831e-05
1.50628e-06
1.60615e-05
1.12812e-06
1.74339e-05
8.57366e-07
1.85521e-05
6.58571e-07
1.94514e-05
5.04226e-07
2.01418e-05
3.6692e-07
2.05881e-05
2.10194e-07
2.06723e-05
-2.39613e-08
2.01301e-05
-4.34777e-07
1.84759e-05
-1.2059e-06
1.50068e-05
-2.74722e-06
9.22668e-06
-6.0373e-06
2.43333e-06
-1.22011e-05
-1.64504e-05
1.1374e-05
1.9952e-05
2.52954e-05
2.90605e-05
3.18309e-05
3.3869e-05
3.53753e-05
3.65034e-05
3.73608e-05
3.80193e-05
3.85236e-05
3.88905e-05
3.91007e-05
3.90767e-05
3.86419e-05
3.7436e-05
3.46888e-05
2.86515e-05
1.64504e-05
)
;

boundaryField
{
    movingWall
    {
        type            calculated;
        value           uniform 0;
    }
    fixedWalls
    {
        type            calculated;
        value           uniform 0;
    }
    frontAndBack
    {
        type            empty;
        value           nonuniform 0();
    }
}


// ************************************************************************* //
