/*--------------------------------*- C++ -*----------------------------------*\
  =========                 |
  \\      /  F ield         | OpenFOAM: The Open Source CFD Toolbox
   \\    /   O peration     | Website:  https://openfoam.org
    \\  /    A nd           | Version:  6
     \\/     M anipulation  |
\*---------------------------------------------------------------------------*/
FoamFile
{
    version     2.0;
    format      ascii;
    class       volScalarField;
    location    "0.08";
    object      p;
}
// * * * * * * * * * * * * * * * * * * * * * * * * * * * * * * * * * * * * * //

dimensions      [0 2 -2 0 0 0 0];

internalField   nonuniform List<scalar> 
400
(
4.21032e-06
-0.00560084
-0.0125225
-0.0177624
-0.0196263
-0.017372
-0.0109473
-0.000789269
0.0123254
0.0273825
0.043206
0.0585301
0.0720816
0.0826866
0.0894046
0.091697
0.0896253
0.0840612
0.0769067
0.0712932
0.00556359
-0.000207834
-0.00563096
-0.0092137
-0.0101511
-0.00792443
-0.00246428
0.0059183
0.016637
0.0289031
0.0417856
0.0542758
0.0653619
0.0741221
0.0798328
0.0820965
0.080986
0.0771233
0.0714963
0.0657442
0.0128972
0.00488541
-0.000982165
-0.00426871
-0.00500714
-0.00293146
0.00195496
0.00935695
0.0187714
0.0295325
0.0408505
0.0518611
0.0616882
0.0695215
0.0747059
0.0768439
0.0759235
0.0723118
0.0661823
0.058173
0.0194811
0.00840308
0.00110867
-0.0026429
-0.00358113
-0.00166656
0.00299098
0.0100514
0.0190246
0.0292937
0.0401324
0.0507362
0.0602712
0.0679384
0.073049
0.0751166
0.0739963
0.069831
0.0621412
0.0509717
0.0236897
0.00938704
0.000387255
-0.00404408
-0.00523816
-0.00335386
0.00138833
0.00858141
0.0177171
0.028191
0.0392991
0.0502514
0.0602053
0.0683169
0.0738057
0.0760459
0.0747311
0.0697964
0.0602024
0.0456053
0.0243224
0.00675114
-0.00402437
-0.00913656
-0.0104667
-0.00835561
-0.00313643
0.00470421
0.0146203
0.0259968
0.0381249
0.050198
0.0613273
0.0705805
0.0770364
0.0798806
0.0786094
0.0729416
0.0613104
0.0430891
0.0203212
-0.000583926
-0.0131051
-0.0187474
-0.0199443
-0.0172239
-0.0110404
-0.00197102
0.00938938
0.0224031
0.0363435
0.05037
0.0635241
0.0747505
0.0829408
0.0870358
0.086278
0.0801242
0.0664352
0.0443227
0.0105756
-0.0137761
-0.0279263
-0.0337926
-0.0344257
-0.0305744
-0.0228342
-0.0118839
0.00162971
0.0170486
0.0336322
0.0505075
0.0666393
0.080828
0.091735
0.0979894
0.0984956
0.0923516
0.0767055
0.0503417
-0.00622817
-0.0341903
-0.0497475
-0.0553414
-0.0547805
-0.0491039
-0.039084
-0.0255132
-0.00908387
0.00954413
0.0296413
0.0503263
0.0705038
0.0888274
0.103694
0.113345
0.116227
0.110918
0.0935942
0.0625422
-0.0317461
-0.063523
-0.0800883
-0.0846287
-0.0819588
-0.0735251
-0.0603295
-0.0432897
-0.0231246
-0.000456329
0.0240471
0.0495508
0.074948
0.0987732
0.119146
0.133841
0.140699
0.137532
0.119117
0.0829152
-0.0681653
-0.103968
-0.120807
-0.123042
-0.116909
-0.104441
-0.0869382
-0.0654469
-0.0406725
-0.0131326
0.0166504
0.0479813
0.0798345
0.110702
0.138457
0.160352
0.173451
0.174458
0.156091
0.114364
-0.118544
-0.158477
-0.174201
-0.172071
-0.160432
-0.14215
-0.118891
-0.091807
-0.0615147
-0.0283204
0.00752372
0.0456025
0.0851232
0.124684
0.162018
0.193874
0.21638
0.224704
0.208507
0.161217
-0.187498
-0.231205
-0.243115
-0.233189
-0.212935
-0.186349
-0.155481
-0.121503
-0.0847965
-0.0452973
-0.00281245
0.0427158
0.0909475
0.140831
0.190202
0.235456
0.27174
0.292219
0.282097
0.230144
-0.282696
-0.328247
-0.330996
-0.307535
-0.273994
-0.235696
-0.194933
-0.15266
-0.108772
-0.0625897
-0.0132477
0.0400278
0.097638
0.159242
0.223204
0.285984
0.341973
0.382038
0.385205
0.331989
-0.418011
-0.458785
-0.441623
-0.395162
-0.341558
-0.287149
-0.23393
-0.182107
-0.130646
-0.0779144
-0.0220955
0.0385718
0.105563
0.179716
0.260588
0.345548
0.429059
0.500059
0.529987
0.485316
-0.619231
-0.636221
-0.578153
-0.493758
-0.410901
-0.335304
-0.267315
-0.205349
-0.146738
-0.0884498
-0.027423
0.0393423
0.114717
0.201241
0.300579
0.412456
0.533284
0.651971
0.733163
0.721995
-0.934464
-0.878483
-0.741384
-0.597707
-0.474335
-0.372598
-0.288675
-0.217376
-0.153361
-0.0916994
-0.0278471
0.0425856
0.124088
0.221408
0.33944
0.482454
0.651988
0.841202
1.01574
1.09653
-1.47387
-1.20833
-0.920468
-0.691245
-0.517486
-0.387744
-0.290107
-0.213166
-0.147719
-0.0866028
-0.0238211
0.0462718
0.129718
0.233738
0.367608
0.542936
0.771084
1.0592
1.40533
1.72756
-2.53129
-1.63903
-1.04586
-0.710934
-0.496048
-0.352411
-0.25468
-0.183512
-0.125855
-0.0730533
-0.0185593
0.0435884
0.120007
0.219487
0.355384
0.548349
0.826407
1.23817
1.92099
2.91499
-4.34935
-2.04829
-0.974076
-0.563496
-0.358913
-0.241355
-0.171094
-0.124379
-0.0876382
-0.0532256
-0.015974
0.028638
0.0857695
0.162953
0.27356
0.44292
0.718284
1.22598
2.41442
4.82994
)
;

boundaryField
{
    movingWall
    {
        type            zeroGradient;
    }
    fixedWalls
    {
        type            zeroGradient;
    }
    frontAndBack
    {
        type            empty;
    }
}


// ************************************************************************* //
