/*--------------------------------*- C++ -*----------------------------------*\
  =========                 |
  \\      /  F ield         | OpenFOAM: The Open Source CFD Toolbox
   \\    /   O peration     | Website:  https://openfoam.org
    \\  /    A nd           | Version:  6
     \\/     M anipulation  |
\*---------------------------------------------------------------------------*/
FoamFile
{
    version     2.0;
    format      ascii;
    class       surfaceScalarField;
    location    "0.08";
    object      phi;
}
// * * * * * * * * * * * * * * * * * * * * * * * * * * * * * * * * * * * * * //

dimensions      [0 3 -1 0 0 0 0];

internalField   nonuniform List<scalar> 
760
(
1.37457e-08
-1.37659e-08
-2.18761e-08
3.56214e-08
-1.1159e-07
8.97137e-08
-2.39235e-07
1.27645e-07
-3.85587e-07
1.46352e-07
-5.32504e-07
1.46917e-07
-6.64393e-07
1.31889e-07
-7.68772e-07
1.04379e-07
-8.36388e-07
6.76164e-08
-8.61261e-07
2.48726e-08
-8.4081e-07
-2.04507e-08
-7.76101e-07
-6.47091e-08
-6.72144e-07
-1.03958e-07
-5.38138e-07
-1.34006e-07
-3.875e-07
-1.50638e-07
-2.37434e-07
-1.50066e-07
-1.07717e-07
-1.29717e-07
-1.8393e-08
-8.93243e-08
1.51429e-08
-3.35358e-08
1.5143e-08
-3.3401e-08
1.96356e-08
-1.75677e-07
1.77898e-07
-4.22255e-07
3.36291e-07
-7.43356e-07
4.48746e-07
-1.10057e-06
5.03568e-07
-1.45501e-06
5.01358e-07
-1.77163e-06
4.48503e-07
-2.02144e-06
3.54188e-07
-2.18262e-06
2.28802e-07
-2.24113e-06
8.33772e-08
-2.19115e-06
-7.04247e-08
-2.03568e-06
-2.2018e-07
-1.78694e-06
-3.52696e-07
-1.4666e-06
-4.54346e-07
-1.10529e-06
-5.11952e-07
-7.40962e-07
-5.1439e-07
-4.15526e-07
-4.55153e-07
-1.69029e-07
-3.35821e-07
-3.02876e-08
-1.72277e-07
-1.51447e-08
-8.97843e-08
1.0942e-07
-3.47309e-07
4.35423e-07
-7.43648e-07
7.32629e-07
-1.23355e-06
9.38653e-07
-1.76441e-06
1.03442e-06
-2.28362e-06
1.02057e-06
-2.74361e-06
9.08495e-07
-3.10477e-06
7.15341e-07
-3.33712e-06
4.6115e-07
-3.42134e-06
1.676e-07
-3.34952e-06
-1.42248e-07
-3.12581e-06
-4.43888e-07
-2.76701e-06
-7.11493e-07
-2.30268e-06
-9.18676e-07
-1.77438e-06
-1.04025e-06
-1.23342e-06
-1.05535e-06
-7.36514e-07
-9.52061e-07
-3.38965e-07
-7.3337e-07
-8.54522e-08
-4.2579e-07
-1.00597e-07
-1.41344e-07
2.50763e-07
-5.11661e-07
8.0574e-07
-1.05335e-06
1.27432e-06
-1.70179e-06
1.58709e-06
-2.38993e-06
1.72257e-06
-3.05386e-06
1.6845e-06
-3.63689e-06
1.49153e-06
-4.09233e-06
1.17078e-06
-4.38498e-06
7.53794e-07
-4.49209e-06
2.74712e-07
-4.40415e-06
-2.30185e-07
-4.12563e-06
-7.22407e-07
-3.67569e-06
-1.16143e-06
-3.08855e-06
-1.50582e-06
-2.41297e-06
-1.71583e-06
-1.71023e-06
-1.75809e-06
-1.04993e-06
-1.61236e-06
-5.03525e-07
-1.27977e-06
-1.36203e-07
-7.93112e-07
-2.36799e-07
-1.88846e-07
4.39608e-07
-6.68618e-07
1.28551e-06
-1.35282e-06
1.95852e-06
-2.15511e-06
2.38937e-06
-2.99297e-06
2.56043e-06
-3.79174e-06
2.48327e-06
-4.48748e-06
2.18728e-06
-5.02862e-06
1.71192e-06
-5.3767e-06
1.10187e-06
-5.5068e-06
4.04816e-07
-5.40803e-06
-3.28963e-07
-5.08422e-06
-1.04621e-06
-4.55503e-06
-1.69063e-06
-3.85685e-06
-2.204e-06
-3.04321e-06
-2.52947e-06
-2.18373e-06
-2.61757e-06
-1.36094e-06
-2.43515e-06
-6.64576e-07
-1.97614e-06
-1.83873e-07
-1.27382e-06
-4.20673e-07
-2.34879e-07
6.74488e-07
-8.23214e-07
1.87385e-06
-1.64937e-06
2.78468e-06
-2.60364e-06
3.34364e-06
-3.58708e-06
3.54387e-06
-4.51465e-06
3.41084e-06
-5.3165e-06
2.98913e-06
-5.93802e-06
2.33343e-06
-6.33917e-06
1.50303e-06
-6.49392e-06
5.59565e-07
-6.39006e-06
-4.32824e-07
-6.02987e-06
-1.4064e-06
-5.4316e-06
-2.2889e-06
-4.63143e-06
-3.00417e-06
-3.68539e-06
-3.47551e-06
-2.67016e-06
-3.63281e-06
-1.68156e-06
-3.42375e-06
-8.29926e-07
-2.82777e-06
-2.31989e-07
-1.87175e-06
-6.52662e-07
-2.81988e-07
9.56476e-07
-9.81096e-07
2.57296e-06
-1.9506e-06
3.75419e-06
-3.05557e-06
4.44861e-06
-4.18002e-06
4.66832e-06
-5.22927e-06
4.46009e-06
-6.12938e-06
3.88924e-06
-6.82491e-06
3.02895e-06
-7.27626e-06
1.95438e-06
-7.45754e-06
7.40844e-07
-7.35544e-06
-5.3492e-07
-6.96968e-06
-1.79216e-06
-6.31496e-06
-2.94361e-06
-5.42439e-06
-3.89474e-06
-4.35352e-06
-4.54638e-06
-3.18395e-06
-4.80238e-06
-2.02456e-06
-4.58314e-06
-1.00847e-06
-3.84385e-06
-2.84249e-07
-2.59598e-06
-9.36911e-07
-3.32439e-07
1.28892e-06
-1.14732e-06
3.38784e-06
-2.26234e-06
4.8692e-06
-3.51472e-06
5.701e-06
-4.77119e-06
5.92479e-06
-5.92923e-06
5.61814e-06
-6.91374e-06
4.87374e-06
-7.67171e-06
3.78692e-06
-8.16684e-06
2.44951e-06
-8.37525e-06
9.49256e-07
-8.2831e-06
-6.2707e-07
-7.88653e-06
-2.18873e-06
-7.19419e-06
-3.63596e-06
-6.23224e-06
-4.85669e-06
-5.05135e-06
-5.72727e-06
-3.73415e-06
-6.11957e-06
-2.40073e-06
-5.91656e-06
-1.2087e-06
-5.03588e-06
-3.44229e-07
-3.46045e-06
-1.28114e-06
-3.88408e-07
1.67732e-06
-1.32631e-06
4.32573e-06
-2.58797e-06
6.13087e-06
-3.97908e-06
7.0921e-06
-5.34958e-06
7.29529e-06
-6.59254e-06
6.8611e-06
-7.63649e-06
5.91769e-06
-8.43573e-06
4.58617e-06
-8.96137e-06
2.97514e-06
-9.19435e-06
1.18223e-06
-9.12142e-06
-6.99996e-07
-8.73435e-06
-2.5758e-06
-8.03277e-06
-4.33753e-06
-7.03093e-06
-5.85853e-06
-5.76809e-06
-6.99011e-06
-4.32125e-06
-7.56641e-06
-2.81714e-06
-7.42067e-06
-1.43819e-06
-6.41483e-06
-4.15495e-07
-4.48315e-06
-1.69663e-06
-4.52595e-07
2.12992e-06
-1.5227e-06
5.39583e-06
-2.92865e-06
7.53682e-06
-4.43978e-06
8.60323e-06
-5.8914e-06
8.74691e-06
-7.17825e-06
8.14795e-06
-8.23982e-06
6.97927e-06
-9.04471e-06
5.39105e-06
-9.57703e-06
3.50746e-06
-9.82649e-06
1.43169e-06
-9.78233e-06
-7.44153e-07
-9.43157e-06
-2.92656e-06
-8.76176e-06
-5.00734e-06
-7.76918e-06
-6.85111e-06
-6.47276e-06
-8.28653e-06
-4.93345e-06
-9.10572e-06
-3.27564e-06
-9.07848e-06
-1.70379e-06
-7.98668e-06
-5.02098e-07
-5.68484e-06
-2.19873e-06
-5.29339e-07
2.65926e-06
-1.74282e-06
6.60932e-06
-3.28354e-06
9.07754e-06
-4.87934e-06
1.0199e-05
-6.35641e-06
1.0224e-05
-7.62136e-06
9.4129e-06
-8.63549e-06
7.99339e-06
-9.39089e-06
6.14645e-06
-9.89176e-06
4.00834e-06
-1.01414e-05
1.68132e-06
-1.01343e-05
-7.51241e-07
-9.85318e-06
-3.20769e-06
-9.27095e-06
-5.58956e-06
-8.35944e-06
-7.76263e-06
-7.1062e-06
-9.53977e-06
-5.54107e-06
-1.06709e-05
-3.7705e-06
-1.08491e-05
-2.01183e-06
-9.74535e-06
-6.09452e-07
-7.08721e-06
-2.80819e-06
-6.26469e-07
3.28573e-06
-1.99657e-06
7.97942e-06
-3.64903e-06
1.073e-05
-5.26734e-06
1.18173e-05
-6.68086e-06
1.16375e-05
-7.82468e-06
1.05567e-05
-8.69671e-06
8.86543e-06
-9.32375e-06
6.77349e-06
-9.73772e-06
4.42231e-06
-9.96061e-06
1.90421e-06
-9.9955e-06
-7.16352e-07
-9.82236e-06
-3.38083e-06
-9.39856e-06
-6.01335e-06
-8.66612e-06
-8.49507e-06
-7.56932e-06
-1.06366e-05
-6.08727e-06
-1.21529e-05
-4.28364e-06
-1.26527e-05
-2.36803e-06
-1.1661e-05
-7.45814e-07
-8.70943e-06
-3.554e-06
-7.58319e-07
4.04405e-06
-2.29865e-06
9.51974e-06
-4.01406e-06
1.24454e-05
-5.54981e-06
1.33531e-05
-6.76373e-06
1.28514e-05
-7.64483e-06
1.14378e-05
-8.24639e-06
9.46698e-06
-8.64122e-06
7.16832e-06
-8.89527e-06
4.67636e-06
-9.0529e-06
2.06184e-06
-9.12883e-06
-6.4042e-07
-9.10336e-06
-3.4063e-06
-8.92042e-06
-6.19629e-06
-8.49074e-06
-8.92475e-06
-7.70585e-06
-1.14215e-05
-6.47207e-06
-1.33867e-05
-4.77467e-06
-1.43501e-05
-2.77558e-06
-1.366e-05
-9.24586e-07
-1.05604e-05
-4.47859e-06
-9.50137e-07
4.99418e-06
-2.66616e-06
1.12358e-05
-4.34495e-06
1.41242e-05
-5.62494e-06
1.46331e-05
-6.44004e-06
1.36665e-05
-6.86906e-06
1.18668e-05
-7.04018e-06
9.63811e-06
-7.07977e-06
7.20791e-06
-7.08884e-06
4.68542e-06
-7.13374e-06
2.10674e-06
-7.24205e-06
-5.32106e-07
-7.39871e-06
-3.24965e-06
-7.54101e-06
-6.05398e-06
-7.55465e-06
-8.91111e-06
-7.2774e-06
-1.16987e-05
-6.52476e-06
-1.41393e-05
-5.15938e-06
-1.57155e-05
-3.22742e-06
-1.5592e-05
-1.16719e-06
-1.26207e-05
-5.64577e-06
-1.24164e-06
6.23582e-06
-3.10178e-06
1.30959e-05
-4.54438e-06
1.55668e-05
-5.29109e-06
1.53798e-05
-5.43224e-06
1.38077e-05
-5.17821e-06
1.16128e-05
-4.74402e-06
9.20392e-06
-4.30519e-06
6.76908e-06
-3.9881e-06
4.36832e-06
-3.87292e-06
1.99157e-06
-3.99732e-06
-4.07706e-07
-4.35552e-06
-2.89145e-06
-4.89076e-06
-5.51874e-06
-5.48181e-06
-8.32005e-06
-5.92909e-06
-1.12514e-05
-5.95661e-06
-1.41118e-05
-5.2637e-06
-1.64084e-05
-3.68071e-06
-1.7175e-05
-1.50253e-06
-1.47988e-05
-7.1483e-06
-1.67552e-06
7.91135e-06
-3.5293e-06
1.49497e-05
-4.34973e-06
1.63872e-05
-4.14361e-06
1.51737e-05
-3.2691e-06
1.29332e-05
-2.09551e-06
1.04392e-05
-9.1022e-07
8.01863e-06
8.99527e-08
5.76891e-06
7.79768e-07
3.67851e-06
1.08408e-06
1.68725e-06
9.63778e-07
-2.87401e-07
4.12046e-07
-2.33972e-06
-5.37389e-07
-4.5693e-06
-1.78837e-06
-7.06907e-06
-3.14701e-06
-9.8928e-06
-4.28353e-06
-1.29753e-05
-4.72768e-06
-1.59642e-05
-3.9809e-06
-1.79218e-05
-1.94529e-06
-1.68344e-05
-9.09359e-06
-2.22567e-06
1.0137e-05
-3.59988e-06
1.63239e-05
-3.10534e-06
1.58927e-05
-1.39027e-06
1.34586e-05
8.30293e-07
1.07126e-05
3.06792e-06
8.20158e-06
5.03278e-06
6.05377e-06
6.5688e-06
4.23289e-06
7.59645e-06
2.65086e-06
8.07357e-06
1.21013e-06
7.97349e-06
-1.87318e-07
7.27711e-06
-1.64334e-06
5.97857e-06
-3.27076e-06
4.10853e-06
-5.19903e-06
1.7837e-06
-7.56797e-06
-7.11099e-07
-1.04805e-05
-2.82117e-06
-1.38542e-05
-3.67138e-06
-1.70716e-05
-2.40541e-06
-1.81004e-05
-1.1499e-05
-2.5483e-06
1.26853e-05
-2.18774e-06
1.59633e-05
6.98444e-07
1.30065e-05
4.43535e-06
9.7217e-06
8.08211e-06
7.06584e-06
1.12328e-05
5.05092e-06
1.37441e-05
3.54249e-06
1.55899e-05
2.38699e-06
1.67848e-05
1.45595e-06
1.73446e-05
6.50385e-07
1.7268e-05
-1.10758e-07
1.65292e-05
-9.04552e-07
1.50774e-05
-1.81889e-06
1.28484e-05
-2.97008e-06
9.80329e-06
-4.52284e-06
6.02064e-06
-6.69783e-06
1.8875e-06
-9.72102e-06
-1.56605e-06
-1.3618e-05
-2.4317e-06
-1.72348e-05
-1.39307e-05
-8.43975e-07
1.35293e-05
4.0632e-06
1.10562e-05
1.02851e-05
6.78457e-06
1.57731e-05
4.2337e-06
2.01261e-05
2.71286e-06
2.34137e-05
1.76338e-06
2.58045e-05
1.15162e-06
2.74556e-05
7.35914e-07
2.84818e-05
4.29788e-07
2.89517e-05
1.8044e-07
2.8889e-05
-4.80014e-08
2.82707e-05
-2.86272e-07
2.70219e-05
-5.70098e-07
2.50052e-05
-9.53396e-07
2.20126e-05
-1.53026e-06
1.77867e-05
-2.47186e-06
1.21518e-05
-4.08613e-06
5.45289e-06
-6.91912e-06
-1.96176e-07
-1.15857e-05
-1.41269e-05
1.35293e-05
2.45854e-05
3.137e-05
3.56037e-05
3.83166e-05
4.008e-05
4.12316e-05
4.19675e-05
4.23973e-05
4.25777e-05
4.25297e-05
4.22434e-05
4.16734e-05
4.072e-05
3.91897e-05
3.67178e-05
3.26317e-05
2.57126e-05
1.41269e-05
)
;

boundaryField
{
    movingWall
    {
        type            calculated;
        value           uniform 0;
    }
    fixedWalls
    {
        type            calculated;
        value           uniform 0;
    }
    frontAndBack
    {
        type            empty;
        value           nonuniform 0();
    }
}


// ************************************************************************* //
