/*--------------------------------*- C++ -*----------------------------------*\
  =========                 |
  \\      /  F ield         | OpenFOAM: The Open Source CFD Toolbox
   \\    /   O peration     | Website:  https://openfoam.org
    \\  /    A nd           | Version:  6
     \\/     M anipulation  |
\*---------------------------------------------------------------------------*/
FoamFile
{
    version     2.0;
    format      ascii;
    class       volVectorField;
    location    "0.08";
    object      U;
}
// * * * * * * * * * * * * * * * * * * * * * * * * * * * * * * * * * * * * * //

dimensions      [0 1 -1 0 0 0 0];

internalField   nonuniform List<vector> 
400
(
(0.00024091 -0.000237964 0)
(0.000128156 0.000116497 0)
(-0.00115298 0.000557356 0)
(-0.00339526 0.000868099 0)
(-0.00621121 0.00102346 0)
(-0.00921487 0.00103812 0)
(-0.0120634 0.000936126 0)
(-0.0144735 0.000743184 0)
(-0.0162267 0.000483754 0)
(-0.0171701 0.000181236 0)
(-0.0172171 -0.000140597 0)
(-0.0163517 -0.000456111 0)
(-0.0146337 -0.000736879 0)
(-0.0122051 -0.000951634 0)
(-0.00929351 -0.00106745 0)
(-0.00620955 -0.00105278 0)
(-0.00333135 -0.0008834 0)
(-0.00107235 -0.000551819 0)
(0.000180152 -9.71674e-05 0)
(0.000255267 0.000250031 0)
(-8.33793e-05 -0.000156017 0)
(-0.00157851 0.00161126 0)
(-0.00554176 0.00352758 0)
(-0.0113987 0.00490174 0)
(-0.0183679 0.0055864 0)
(-0.0256593 0.0056001 0)
(-0.0325218 0.00502699 0)
(-0.0383067 0.00397891 0)
(-0.0425015 0.00257694 0)
(-0.0447452 0.000946495 0)
(-0.0448368 -0.000781069 0)
(-0.042746 -0.00246539 0)
(-0.0386235 -0.00395587 0)
(-0.0328089 -0.0050946 0)
(-0.0258302 -0.00572564 0)
(-0.0183857 -0.00571329 0)
(-0.0112916 -0.00497254 0)
(-0.00539114 -0.00351321 0)
(-0.00147238 -0.00153619 0)
(-5.08414e-05 0.000211195 0)
(-0.000522168 0.00106757 0)
(-0.00361908 0.0055843 0)
(-0.0103006 0.00994373 0)
(-0.0194433 0.0130303 0)
(-0.0299155 0.014518 0)
(-0.0406605 0.0144089 0)
(-0.0506659 0.0128706 0)
(-0.0590472 0.0101558 0)
(-0.0651019 0.00655664 0)
(-0.0683334 0.00238715 0)
(-0.0684662 -0.00201918 0)
(-0.0654598 -0.00630749 0)
(-0.059522 -0.0101027 0)
(-0.0511176 -0.0130202 0)
(-0.0409649 -0.0146916 0)
(-0.0300096 -0.014811 0)
(-0.0193502 -0.013206 0)
(-0.0101212 -0.00993239 0)
(-0.00347725 -0.00542837 0)
(-0.000475082 -0.000936494 0)
(-0.000911964 0.00339045 0)
(-0.00555023 0.0118925 0)
(-0.0149012 0.0193773 0)
(-0.0271873 0.0244975 0)
(-0.0408866 0.0268191 0)
(-0.0547039 0.0263657 0)
(-0.0674291 0.0234227 0)
(-0.078016 0.0184216 0)
(-0.0856388 0.0118693 0)
(-0.0897149 0.00431658 0)
(-0.0899184 -0.00365 0)
(-0.0861956 -0.0114075 0)
(-0.0787798 -0.0183005 0)
(-0.0682048 -0.023661 0)
(-0.0553067 -0.0268526 0)
(-0.041203 -0.0273488 0)
(-0.0272151 -0.0248469 0)
(-0.0147521 -0.0194097 0)
(-0.0053917 -0.011655 0)
(-0.000851903 -0.00316057 0)
(-0.00125744 0.00670007 0)
(-0.00736476 0.020405 0)
(-0.0193342 0.0316503 0)
(-0.0346957 0.0390275 0)
(-0.0514988 0.0421141 0)
(-0.0682062 0.0410369 0)
(-0.083438 0.0362563 0)
(-0.0960296 0.0284248 0)
(-0.105077 0.0182967 0)
(-0.109947 0.0066861 0)
(-0.110276 -0.0055433 0)
(-0.105992 -0.0174758 0)
(-0.097324 -0.0281467 0)
(-0.0848284 -0.036567 0)
(-0.0694065 -0.0417844 0)
(-0.0523026 -0.0429904 0)
(-0.0350423 -0.0396776 0)
(-0.0193303 -0.0318272 0)
(-0.00723128 -0.0201285 0)
(-0.00119008 -0.00636215 0)
(-0.00158563 0.0109372 0)
(-0.0091387 0.031083 0)
(-0.0237192 0.0467519 0)
(-0.0421382 0.0565992 0)
(-0.061986 0.0603453 0)
(-0.0814765 0.0583284 0)
(-0.0990792 0.0512633 0)
(-0.113547 0.0400763 0)
(-0.123935 0.0257997 0)
(-0.129587 0.0095258 0)
(-0.130119 -0.00759856 0)
(-0.125428 -0.0243598 0)
(-0.115709 -0.0394713 0)
(-0.101497 -0.0515942 0)
(-0.0837089 -0.059407 0)
(-0.0636753 -0.0617385 0)
(-0.0431134 -0.0577687 0)
(-0.0240511 -0.0472719 0)
(-0.00910688 -0.0308847 0)
(-0.00152423 -0.0105097 0)
(-0.00192234 0.0160979 0)
(-0.0109563 0.0439433 0)
(-0.0281936 0.0647024 0)
(-0.0496784 0.0772037 0)
(-0.0725115 0.0814567 0)
(-0.0946609 0.0781437 0)
(-0.114474 0.0683337 0)
(-0.130664 0.0532883 0)
(-0.142292 0.0343459 0)
(-0.148713 0.0128794 0)
(-0.149536 -0.00969425 0)
(-0.144622 -0.0318799 0)
(-0.1341 -0.0520749 0)
(-0.11843 -0.0685725 0)
(-0.0984798 -0.0796269 0)
(-0.0756137 -0.0836038 0)
(-0.0517105 -0.0792285 0)
(-0.0291383 -0.0659018 0)
(-0.0111452 -0.0440559 0)
(-0.00189008 -0.0156485 0)
(-0.00229065 0.0222269 0)
(-0.0128954 0.0590602 0)
(-0.0328776 0.0855438 0)
(-0.0574253 0.100808 0)
(-0.0831168 0.10533 0)
(-0.107694 0.100304 0)
(-0.129433 0.0872711 0)
(-0.147076 0.0678997 0)
(-0.159751 0.0438558 0)
(-0.166876 0.0167787 0)
(-0.168079 -0.0116807 0)
(-0.16318 -0.0397888 0)
(-0.152206 -0.0656591 0)
(-0.135477 -0.087218 0)
(-0.113727 -0.102245 0)
(-0.088259 -0.108529 0)
(-0.0610508 -0.104157 0)
(-0.0348002 -0.0879333 0)
(-0.0134718 -0.0598753 0)
(-0.00232269 -0.0218977 0)
(-0.00271406 0.0294126 0)
(-0.0150316 0.0765593 0)
(-0.0378681 0.109319 0)
(-0.0654129 0.127309 0)
(-0.0936853 0.131721 0)
(-0.120249 0.124466 0)
(-0.143403 0.107712 0)
(-0.162014 0.0836041 0)
(-0.175375 0.0541479 0)
(-0.183035 0.0212132 0)
(-0.184684 -0.0133819 0)
(-0.180104 -0.0477431 0)
(-0.169186 -0.0797685 0)
(-0.152025 -0.107051 0)
(-0.129102 -0.126866 0)
(-0.101524 -0.1363 0)
(-0.0712368 -0.132582 0)
(-0.0412098 -0.113609 0)
(-0.0162109 -0.0786686 0)
(-0.00285954 -0.0294475 0)
(-0.00322426 0.0377898 0)
(-0.0174561 0.0966073 0)
(-0.0432526 0.136032 0)
(-0.0735925 0.156461 0)
(-0.103908 0.16015 0)
(-0.131685 0.150015 0)
(-0.155387 0.129018 0)
(-0.174161 0.0998571 0)
(-0.187589 0.064869 0)
(-0.195451 0.0260874 0)
(-0.197556 -0.0146055 0)
(-0.193667 -0.0552762 0)
(-0.183504 -0.0937242 0)
(-0.166849 -0.127292 0)
(-0.143779 -0.152762 0)
(-0.114997 -0.166411 0)
(-0.0822044 -0.164341 0)
(-0.048495 -0.143126 0)
(-0.0194978 -0.100833 0)
(-0.0035482 -0.0385631 0)
(-0.00387552 0.0475599 0)
(-0.0203085 0.119411 0)
(-0.049132 0.165585 0)
(-0.0818196 0.187761 0)
(-0.113227 0.189776 0)
(-0.140948 0.175921 0)
(-0.163841 0.150151 0)
(-0.181535 0.115774 0)
(-0.194068 0.0754163 0)
(-0.201569 0.0311698 0)
(-0.204043 -0.0151651 0)
(-0.201265 -0.0617851 0)
(-0.192768 -0.106567 0)
(-0.177938 -0.146756 0)
(-0.156269 -0.178724 0)
(-0.127796 -0.19788 0)
(-0.0936411 -0.198916 0)
(-0.0567236 -0.176529 0)
(-0.0235004 -0.12681 0)
(-0.00446011 -0.0496026 0)
(-0.00477013 0.0590413 0)
(-0.0238265 0.145222 0)
(-0.0556389 0.197695 0)
(-0.0898009 0.220292 0)
(-0.120713 0.219208 0)
(-0.146417 0.200576 0)
(-0.166498 0.169541 0)
(-0.181332 0.13003 0)
(-0.191598 0.0848638 0)
(-0.197895 0.0360379 0)
(-0.200504 -0.014917 0)
(-0.199267 -0.0665412 0)
(-0.19354 -0.117024 0)
(-0.182261 -0.163756 0)
(-0.164181 -0.20289 0)
(-0.13835 -0.22902 0)
(-0.104839 -0.235187 0)
(-0.0658609 -0.213532 0)
(-0.0284495 -0.157037 0)
(-0.00571482 -0.0630585 0)
(-0.00610372 0.0727711 0)
(-0.0284129 0.174336 0)
(-0.0629104 0.231721 0)
(-0.0969324 0.252473 0)
(-0.12481 0.246265 0)
(-0.145611 0.221609 0)
(-0.160109 0.184966 0)
(-0.169722 0.140792 0)
(-0.175931 0.0919195 0)
(-0.179892 0.0400384 0)
(-0.182228 -0.0138065 0)
(-0.182904 -0.0687362 0)
(-0.181164 -0.123531 0)
(-0.175517 -0.176053 0)
(-0.163887 -0.222585 0)
(-0.144044 -0.257152 0)
(-0.114412 -0.271073 0)
(-0.07565 -0.253221 0)
(-0.0346715 -0.191862 0)
(-0.00752181 -0.0796436 0)
(-0.00823868 0.0896845 0)
(-0.0346956 0.207027 0)
(-0.0709137 0.266332 0)
(-0.101876 0.281654 0)
(-0.122789 0.267663 0)
(-0.134669 0.235714 0)
(-0.140033 0.193506 0)
(-0.141581 0.145742 0)
(-0.141653 0.09496 0)
(-0.141955 0.0422925 0)
(-0.143443 -0.0119157 0)
(-0.146264 -0.0675804 0)
(-0.149663 -0.124344 0)
(-0.151876 -0.180925 0)
(-0.150089 -0.234247 0)
(-0.140656 -0.278321 0)
(-0.119763 -0.303053 0)
(-0.0853007 -0.293549 0)
(-0.0425782 -0.231315 0)
(-0.0102416 -0.100428 0)
(-0.0117829 0.111372 0)
(-0.0434484 0.243241 0)
(-0.0788331 0.298833 0)
(-0.101557 0.303525 0)
(-0.10969 0.278702 0)
(-0.107475 0.238621 0)
(-0.0996411 0.191695 0)
(-0.0901843 0.142294 0)
(-0.0821252 0.0922267 0)
(-0.0775121 0.0418008 0)
(-0.0775147 -0.00948936 0)
(-0.0824703 -0.0624678 0)
(-0.0918028 -0.117815 0)
(-0.1038 -0.175457 0)
(-0.115308 -0.233591 0)
(-0.12151 -0.287146 0)
(-0.116063 -0.325583 0)
(-0.0926997 -0.330487 0)
(-0.0524333 -0.274557 0)
(-0.0144192 -0.126996 0)
(-0.0174854 0.140466 0)
(-0.0548494 0.281716 0)
(-0.0832774 0.323888 0)
(-0.0889707 0.311316 0)
(-0.0764159 0.273124 0)
(-0.0543264 0.225418 0)
(-0.0295929 0.17606 0)
(-0.0069826 0.128156 0)
(0.0103914 0.0822758 0)
(0.020608 0.0377057 0)
(0.0225678 -0.0069054 0)
(0.0158039 -0.0532057 0)
(0.000519087 -0.102871 0)
(-0.0221186 -0.157195 0)
(-0.0493993 -0.216233 0)
(-0.0762569 -0.27706 0)
(-0.094391 -0.330585 0)
(-0.0925067 -0.356727 0)
(-0.0633007 -0.318709 0)
(-0.020534 -0.161661 0)
(-0.0252075 0.181495 0)
(-0.0656278 0.317694 0)
(-0.0737102 0.330923 0)
(-0.0488235 0.294646 0)
(-0.00670446 0.243304 0)
(0.0396774 0.191445 0)
(0.0827154 0.144191 0)
(0.118262 0.102286 0)
(0.144182 0.0646897 0)
(0.159393 0.029718 0)
(0.163276 -0.00456239 0)
(0.155383 -0.0402562 0)
(0.135405 -0.0796534 0)
(0.103432 -0.125163 0)
(0.0606425 -0.178881 0)
(0.0106091 -0.241163 0)
(-0.0386256 -0.307104 0)
(-0.072074 -0.359609 0)
(-0.0698407 -0.356394 0)
(-0.0276136 -0.208013 0)
(-0.0289723 0.238666 0)
(-0.0602228 0.336092 0)
(-0.0222295 0.30044 0)
(0.049969 0.239734 0)
(0.126729 0.182431 0)
(0.195811 0.134848 0)
(0.252787 0.0969021 0)
(0.2964 0.066454 0)
(0.326751 0.0410973 0)
(0.344269 0.0186805 0)
(0.349162 -0.00272951 0)
(0.341181 -0.0250517 0)
(0.319537 -0.0504521 0)
(0.282978 -0.0816267 0)
(0.230233 -0.121982 0)
(0.161188 -0.17521 0)
(0.0791907 -0.243053 0)
(-0.00356896 -0.319019 0)
(-0.0539548 -0.368814 0)
(-0.0276739 -0.266931 0)
(0.00961216 0.280872 0)
(0.0212262 0.294801 0)
(0.138748 0.210858 0)
(0.264024 0.143306 0)
(0.363852 0.0970088 0)
(0.439609 0.0656111 0)
(0.495729 0.0440915 0)
(0.535637 0.0287738 0)
(0.562046 0.0171325 0)
(0.576816 0.00747083 0)
(0.580881 -0.00145633 0)
(0.574264 -0.0107619 0)
(0.556014 -0.0217294 0)
(0.524027 -0.0361954 0)
(0.474891 -0.0571067 0)
(0.403863 -0.0892183 0)
(0.304566 -0.139561 0)
(0.172925 -0.216198 0)
(0.0426847 -0.311311 0)
(0.020116 -0.29885 0)
(0.300978 0.145476 0)
(0.397781 0.127062 0)
(0.557516 0.0759113 0)
(0.674429 0.0436608 0)
(0.743773 0.0255597 0)
(0.786904 0.015251 0)
(0.815107 0.00922751 0)
(0.833478 0.00552545 0)
(0.84484 0.00304326 0)
(0.850793 0.00116549 0)
(0.85209 -0.000484194 0)
(0.848841 -0.00220158 0)
(0.84052 -0.00432871 0)
(0.825745 -0.00741816 0)
(0.801787 -0.012525 0)
(0.763439 -0.0217488 0)
(0.69896 -0.0392089 0)
(0.583912 -0.0724482 0)
(0.417311 -0.127337 0)
(0.310267 -0.148802 0)
)
;

boundaryField
{
    movingWall
    {
        type            fixedValue;
        value           uniform (1 0 0);
    }
    fixedWalls
    {
        type            noSlip;
    }
    frontAndBack
    {
        type            empty;
    }
}


// ************************************************************************* //
