/*--------------------------------*- C++ -*----------------------------------*\
  =========                 |
  \\      /  F ield         | OpenFOAM: The Open Source CFD Toolbox
   \\    /   O peration     | Website:  https://openfoam.org
    \\  /    A nd           | Version:  6
     \\/     M anipulation  |
\*---------------------------------------------------------------------------*/
FoamFile
{
    version     2.0;
    format      ascii;
    class       volScalarField;
    location    "0.07";
    object      p;
}
// * * * * * * * * * * * * * * * * * * * * * * * * * * * * * * * * * * * * * //

dimensions      [0 2 -2 0 0 0 0];

internalField   nonuniform List<scalar> 
400
(
2.44755e-05
-0.0580368
-0.130344
-0.186204
-0.207162
-0.184917
-0.118845
-0.0138569
0.121366
0.27571
0.436676
0.591286
0.726944
0.832373
0.898726
0.920993
0.899813
0.843623
0.771091
0.713026
0.0575795
-0.00207252
-0.0588345
-0.0973895
-0.108591
-0.0866037
-0.0306806
0.0556281
0.16573
0.290972
0.42148
0.54695
0.657425
0.744114
0.800286
0.822304
0.810921
0.772083
0.715125
0.655512
0.134072
0.0514391
-0.0100052
-0.0456124
-0.0547436
-0.0341784
0.016022
0.0924057
0.18918
0.298918
0.413187
0.523184
0.620384
0.697211
0.747717
0.768345
0.759028
0.723093
0.661397
0.578796
0.204745
0.0903867
0.0139324
-0.0267013
-0.0378216
-0.0185209
0.0299312
0.103439
0.19615
0.300989
0.41009
0.515277
0.608573
0.682711
0.731635
0.751098
0.739796
0.698747
0.62191
0.507495
0.253414
0.105445
0.0109818
-0.0368251
-0.0502252
-0.0303724
0.0201203
0.096173
0.191442
0.298737
0.410291
0.518085
0.614206
0.691216
0.742488
0.762718
0.749206
0.700897
0.605852
0.457624
0.268515
0.0861398
-0.0271446
-0.0819033
-0.0958287
-0.0720519
-0.0146761
0.0699625
0.174705
0.291912
0.41358
0.531511
0.637514
0.723621
0.782286
0.806833
0.792986
0.737678
0.623549
0.440553
0.240025
0.0220692
-0.109762
-0.169458
-0.180296
-0.147577
-0.0771564
0.0230858
0.14491
0.279996
0.419897
0.556032
0.679713
0.782188
0.854689
0.888841
0.878474
0.818279
0.685291
0.466144
0.157168
-0.0982155
-0.247317
-0.308
-0.310034
-0.261447
-0.170289
-0.0463104
0.100962
0.262423
0.429131
0.592095
0.742067
0.869384
0.963807
1.01487
1.01403
0.953088
0.802499
0.545101
0.00655427
-0.28877
-0.452559
-0.507841
-0.492717
-0.418976
-0.297512
-0.140324
0.0416527
0.238579
0.441175
0.640217
0.826046
0.988113
1.11455
1.19236
1.20987
1.1549
0.989348
0.69091
-0.229647
-0.567835
-0.741516
-0.781437
-0.73718
-0.625917
-0.46227
-0.260868
-0.0340303
0.207955
0.455893
0.700789
0.932989
1.14133
1.31231
1.42995
1.47847
1.43995
1.26442
0.92176
-0.576158
-0.959907
-1.1346
-1.14356
-1.05295
-0.887683
-0.667179
-0.408948
-0.126388
0.170398
0.473088
0.773759
1.06356
1.33136
1.5623
1.73713
1.83478
1.8291
1.65287
1.26312
-1.06873
-1.49884
-1.65794
-1.61118
-1.44929
-1.2081
-0.912794
-0.583648
-0.234312
0.126451
0.492479
0.858247
1.21702
1.55889
1.86849
2.12341
2.29625
2.34922
2.18961
1.75206
-1.76201
-2.23277
-2.34489
-2.20269
-1.93341
-1.58731
-1.19576
-0.780719
-0.354362
0.0777924
0.513648
0.951984
1.39013
1.82139
2.23172
2.59667
2.88207
3.03481
2.92441
2.44532
-2.74583
-3.23205
-3.23678
-2.9352
-2.50663
-2.01828
-1.50606
-0.990653
-0.479606
0.0277197
0.535895
1.0505
1.5756
2.11073
2.64652
3.15958
3.61068
3.92882
3.92987
3.43591
-4.17855
-4.60076
-4.38019
-3.81697
-3.15677
-2.48066
-1.82278
-1.19614
-0.598299
-0.0184327
0.557871
1.14589
1.75965
2.40911
3.09509
3.80206
4.49228
5.07995
5.31309
4.88692
-6.34413
-6.48668
-5.81681
-4.83463
-3.84755
-2.93377
-2.11026
-1.37026
-0.693302
-0.053371
0.577059
1.2257
1.91985
2.68494
3.54033
4.49079
5.51601
6.53242
7.22514
7.08838
-9.7517
-9.08102
-7.56417
-5.94214
-4.51389
-3.31576
-2.31964
-1.47902
-0.744368
-0.069236
0.589489
1.27362
2.02617
2.89335
3.92415
5.16403
6.63871
8.30627
9.86024
10.5557
-15.5364
-12.6255
-9.51763
-6.9847
-5.01684
-3.51979
-2.37769
-1.47699
-0.727172
-0.0582722
0.587952
1.26603
2.03422
2.9625
4.14136
5.68449
7.70706
10.2989
13.4647
16.4325
-26.6562
-17.272
-10.9829
-7.32162
-4.90822
-3.25889
-2.11012
-1.26424
-0.591308
-0.00618932
0.554896
1.14955
1.84159
2.71623
3.90366
5.60275
8.0796
11.8177
18.1961
27.6823
-45.2701
-21.7485
-10.5222
-6.00944
-3.66575
-2.26886
-1.38834
-0.780177
-0.31128
0.0920884
0.479243
0.893032
1.38272
2.02186
2.94323
4.39233
6.80706
11.417
22.7573
46.3937
)
;

boundaryField
{
    movingWall
    {
        type            zeroGradient;
    }
    fixedWalls
    {
        type            zeroGradient;
    }
    frontAndBack
    {
        type            empty;
    }
}


// ************************************************************************* //
