/*--------------------------------*- C++ -*----------------------------------*\
  =========                 |
  \\      /  F ield         | OpenFOAM: The Open Source CFD Toolbox
   \\    /   O peration     | Website:  https://openfoam.org
    \\  /    A nd           | Version:  6
     \\/     M anipulation  |
\*---------------------------------------------------------------------------*/
FoamFile
{
    version     2.0;
    format      ascii;
    class       surfaceScalarField;
    location    "0.02";
    object      phi;
}
// * * * * * * * * * * * * * * * * * * * * * * * * * * * * * * * * * * * * * //

dimensions      [0 3 -1 0 0 0 0];

internalField   nonuniform List<scalar> 
760
(
1.48019e-08
-1.48022e-08
-2.0676e-08
3.5478e-08
-1.12462e-07
9.17846e-08
-2.44396e-07
1.31935e-07
-3.96384e-07
1.51989e-07
-5.49045e-07
1.52662e-07
-6.85609e-07
1.36563e-07
-7.92784e-07
1.07175e-07
-8.61035e-07
6.82526e-08
-8.84617e-07
2.35832e-08
-8.61548e-07
-2.30682e-08
-7.93623e-07
-6.79252e-08
-6.8647e-07
-1.07153e-07
-5.49621e-07
-1.36849e-07
-3.9649e-07
-1.53132e-07
-2.44052e-07
-1.52437e-07
-1.11893e-07
-1.32159e-07
-2.01995e-08
-9.16931e-08
1.49814e-08
-3.51809e-08
1.49814e-08
-3.27858e-08
1.79833e-08
-1.77169e-07
1.7986e-07
-4.30274e-07
3.44891e-07
-7.62027e-07
4.63687e-07
-1.13229e-06
5.22257e-07
-1.49978e-06
5.20143e-07
-1.82709e-06
4.63875e-07
-2.08361e-06
3.63698e-07
-2.24688e-06
2.31525e-07
-2.3032e-06
7.98977e-08
-2.24784e-06
-7.84281e-08
-2.08518e-06
-2.30585e-07
-1.82871e-06
-3.63624e-07
-1.50088e-06
-4.64676e-07
-1.13253e-06
-5.2148e-07
-7.61417e-07
-5.23555e-07
-4.29204e-07
-4.64373e-07
-1.7621e-07
-3.44688e-07
-3.23591e-08
-1.79032e-07
-1.73777e-08
-9.01861e-08
1.08169e-07
-3.52631e-07
4.42306e-07
-7.59868e-07
7.52131e-07
-1.26585e-06
9.69672e-07
-1.81548e-06
1.07188e-06
-2.35294e-06
1.0576e-06
-2.82762e-06
9.38559e-07
-3.19783e-06
7.33913e-07
-3.43283e-06
4.66522e-07
-3.51378e-06
1.60849e-07
-3.43421e-06
-1.58003e-07
-3.20013e-06
-4.64657e-07
-2.83009e-06
-7.33666e-07
-2.3548e-06
-9.39972e-07
-1.8162e-06
-1.06008e-06
-1.26537e-06
-1.07438e-06
-7.58622e-07
-9.71117e-07
-3.5138e-07
-7.51929e-07
-8.95743e-08
-4.40838e-07
-1.06952e-07
-1.42653e-07
2.50821e-07
-5.20732e-07
8.20385e-07
-1.07772e-06
1.30912e-06
-1.74737e-06
1.63932e-06
-2.45919e-06
1.78371e-06
-3.14521e-06
1.74361e-06
-3.74518e-06
1.53853e-06
-4.21012e-06
1.19885e-06
-4.50416e-06
7.60557e-07
-4.60541e-06
2.62101e-07
-4.50634e-06
-2.57077e-07
-4.21387e-06
-7.57123e-07
-3.74947e-06
-1.19807e-06
-3.14889e-06
-1.54055e-06
-2.46141e-06
-1.74756e-06
-1.74783e-06
-1.78796e-06
-1.07685e-06
-1.6421e-06
-5.1945e-07
-1.30933e-06
-1.41918e-07
-8.1837e-07
-2.4887e-07
-1.90995e-07
4.41817e-07
-6.81651e-07
1.31104e-06
-1.38596e-06
2.01343e-06
-2.21473e-06
2.46808e-06
-3.08071e-06
2.64969e-06
-3.90419e-06
2.5671e-06
-4.61719e-06
2.25153e-06
-5.16582e-06
1.74749e-06
-5.51137e-06
1.10611e-06
-5.63047e-06
3.81203e-07
-5.51505e-06
-3.72499e-07
-5.17233e-06
-1.09985e-06
-4.62503e-06
-1.74537e-06
-3.91163e-06
-2.25394e-06
-3.08628e-06
-2.57291e-06
-2.21767e-06
-2.65657e-06
-1.38649e-06
-2.47328e-06
-6.80854e-07
-2.01497e-06
-1.90271e-07
-1.30895e-06
-4.39141e-07
-2.38157e-07
6.79975e-07
-8.41381e-07
1.91426e-06
-1.69348e-06
2.86553e-06
-2.68008e-06
3.45468e-06
-3.6958e-06
3.66541e-06
-4.6494e-06
3.5207e-06
-5.46652e-06
3.06865e-06
-6.09049e-06
2.37146e-06
-6.48178e-06
1.4974e-06
-6.61697e-06
5.16391e-07
-6.48793e-06
-5.01546e-07
-6.10156e-06
-1.48621e-06
-5.48034e-06
-2.36659e-06
-4.66335e-06
-3.07094e-06
-3.70743e-06
-3.52883e-06
-2.6878e-06
-3.6762e-06
-1.69704e-06
-3.46404e-06
-8.41943e-07
-2.87007e-06
-2.37696e-07
-1.9132e-06
-6.76837e-07
-2.87185e-07
9.6716e-07
-1.00692e-06
2.634e-06
-2.00997e-06
3.86858e-06
-3.15416e-06
4.59887e-06
-4.31484e-06
4.82609e-06
-5.38987e-06
4.59573e-06
-6.30055e-06
3.97934e-06
-6.98999e-06
3.06089e-06
-7.42021e-06
1.92762e-06
-7.56941e-06
6.65589e-07
-7.42995e-06
-6.41008e-07
-7.00778e-06
-1.90838e-06
-6.32334e-06
-3.05103e-06
-5.41378e-06
-3.98049e-06
-4.33604e-06
-4.60657e-06
-3.16977e-06
-4.84247e-06
-2.01887e-06
-4.61493e-06
-1.01013e-06
-3.87881e-06
-2.87388e-07
-2.63594e-06
-9.64225e-07
-3.40941e-07
1.3081e-06
-1.18488e-06
3.47793e-06
-2.3436e-06
5.0273e-06
-3.6434e-06
5.89867e-06
-4.93969e-06
6.12239e-06
-6.12132e-06
5.77736e-06
-7.10861e-06
4.96662e-06
-7.84817e-06
3.80046e-06
-8.3069e-06
2.38636e-06
-8.46677e-06
8.25456e-07
-8.32138e-06
-7.86404e-07
-7.8749e-06
-2.35485e-06
-7.14351e-06
-3.78243e-06
-6.15902e-06
-4.96498e-06
-4.97453e-06
-5.79106e-06
-3.67065e-06
-6.14634e-06
-2.36076e-06
-5.92483e-06
-1.19246e-06
-5.04711e-06
-3.42377e-07
-3.48602e-06
-1.3066e-06
-4.0226e-07
1.71036e-06
-1.38126e-06
4.45693e-06
-2.69982e-06
6.34586e-06
-4.14773e-06
7.34658e-06
-5.56073e-06
7.53539e-06
-6.82257e-06
7.0392e-06
-7.85812e-06
6.00217e-06
-8.6231e-06
4.56544e-06
-9.09377e-06
2.85703e-06
-9.25874e-06
9.90419e-07
-9.11385e-06
-9.31286e-07
-8.66058e-06
-2.80813e-06
-7.90786e-06
-4.53515e-06
-6.8776e-06
-5.99524e-06
-5.61328e-06
-7.05538e-06
-4.1907e-06
-7.56893e-06
-2.7286e-06
-7.38692e-06
-1.39532e-06
-6.38039e-06
-4.05669e-07
-4.47568e-06
-1.71227e-06
-4.74502e-07
2.18486e-06
-1.60198e-06
5.58442e-06
-3.08088e-06
7.82475e-06
-4.65843e-06
8.92413e-06
-6.1531e-06
9.03006e-06
-7.45071e-06
8.3368e-06
-8.48931e-06
7.04078e-06
-9.24152e-06
5.31764e-06
-9.69883e-06
3.31433e-06
-9.8601e-06
1.1517e-06
-9.72472e-06
-1.06667e-06
-9.29033e-06
-3.24253e-06
-8.55517e-06
-5.2703e-06
-7.52529e-06
-7.02512e-06
-6.22649e-06
-8.35418e-06
-4.72078e-06
-9.07464e-06
-3.12474e-06
-8.98296e-06
-1.6249e-06
-7.88022e-06
-4.80787e-07
-5.61979e-06
-2.19306e-06
-5.62571e-07
2.74743e-06
-1.85388e-06
6.87573e-06
-3.48503e-06
9.4559e-06
-5.15475e-06
1.05939e-05
-6.67103e-06
1.05463e-05
-7.9341e-06
9.59987e-06
-8.90773e-06
8.01441e-06
-9.59155e-06
6.00146e-06
-9.99924e-06
3.72203e-06
-1.01439e-05
1.29639e-06
-1.003e-05
-1.18066e-06
-9.65008e-06
-3.6224e-06
-8.9882e-06
-5.93218e-06
-8.02756e-06
-7.98576e-06
-6.76598e-06
-9.61576e-06
-5.23856e-06
-1.06021e-05
-3.54673e-06
-1.06748e-05
-1.888e-06
-9.53894e-06
-5.72763e-07
-6.93503e-06
-2.76582e-06
-6.74616e-07
3.42205e-06
-2.14573e-06
8.34684e-06
-3.90399e-06
1.12142e-05
-5.5973e-06
1.22872e-05
-7.03853e-06
1.19876e-05
-8.16212e-06
1.07235e-05
-8.97454e-06
8.82684e-06
-9.51416e-06
6.54108e-06
-9.82384e-06
4.03171e-06
-9.93448e-06
1.40703e-06
-9.85657e-06
-1.25857e-06
-9.57746e-06
-3.90151e-06
-9.06363e-06
-6.44601e-06
-8.26891e-06
-8.78048e-06
-7.15125e-06
-1.07334e-05
-5.70129e-06
-1.2052e-05
-3.98445e-06
-1.23916e-05
-2.19284e-06
-1.13306e-05
-6.8978e-07
-8.43809e-06
-3.4556e-06
-8.24758e-07
4.24681e-06
-2.48821e-06
1.00103e-05
-4.31601e-06
1.30419e-05
-5.9149e-06
1.38861e-05
-7.13343e-06
1.32061e-05
-7.96999e-06
1.156e-05
-8.49415e-06
9.351e-06
-8.7941e-06
6.84103e-06
-8.94649e-06
4.1841e-06
-9.00147e-06
1.46201e-06
-8.97621e-06
-1.28383e-06
-8.85289e-06
-4.02482e-06
-8.57988e-06
-6.71903e-06
-8.07752e-06
-9.28284e-06
-7.2531e-06
-1.15578e-05
-6.03192e-06
-1.32732e-05
-4.41241e-06
-1.40111e-05
-2.54862e-06
-1.31944e-05
-8.45828e-07
-1.01409e-05
-4.30143e-06
-1.0369e-06
5.2837e-06
-2.8893e-06
1.18627e-05
-4.66769e-06
1.48203e-05
-5.97808e-06
1.51965e-05
-6.76045e-06
1.39885e-05
-7.11683e-06
1.19164e-05
-7.19962e-06
9.43379e-06
-7.15213e-06
6.79354e-06
-7.08316e-06
4.11513e-06
-7.05912e-06
1.43796e-06
-7.10272e-06
-1.24022e-06
-7.19283e-06
-3.93472e-06
-7.26348e-06
-6.64837e-06
-7.20415e-06
-9.34217e-06
-6.86693e-06
-1.18951e-05
-6.09229e-06
-1.40478e-05
-4.77085e-06
-1.53326e-05
-2.96026e-06
-1.50049e-05
-1.06431e-06
-1.20368e-05
-5.36574e-06
-1.34665e-06
6.63035e-06
-3.33361e-06
1.38497e-05
-4.83014e-06
1.63169e-05
-5.54784e-06
1.59142e-05
-5.60715e-06
1.40478e-05
-5.25622e-06
1.15655e-05
-4.73827e-06
8.91584e-06
-4.24271e-06
6.29798e-06
-3.89722e-06
3.76964e-06
-3.77427e-06
1.31501e-06
-3.89852e-06
-1.11597e-06
-4.24936e-06
-3.58387e-06
-4.75726e-06
-6.14047e-06
-5.29516e-06
-8.80428e-06
-5.67053e-06
-1.15197e-05
-5.63239e-06
-1.4086e-05
-4.9212e-06
-1.60438e-05
-3.40667e-06
-1.65195e-05
-1.3795e-06
-1.4064e-05
-6.74524e-06
-1.78553e-06
8.41588e-06
-3.71244e-06
1.57766e-05
-4.49803e-06
1.71025e-05
-4.18175e-06
1.55979e-05
-3.17856e-06
1.30446e-05
-1.90268e-06
1.02896e-05
-6.64386e-07
7.67755e-06
3.3549e-07
5.29811e-06
9.79977e-07
3.12515e-06
1.20921e-06
1.08578e-06
1.00318e-06
-9.09935e-07
3.76061e-07
-2.95676e-06
-6.17519e-07
-5.14689e-06
-1.86424e-06
-7.55756e-06
-3.16358e-06
-1.02204e-05
-4.19981e-06
-1.30497e-05
-4.54592e-06
-1.56977e-05
-3.76935e-06
-1.7296e-05
-1.8194e-06
-1.6014e-05
-8.56464e-06
-2.30072e-06
1.07166e-05
-3.62904e-06
1.71049e-05
-2.97798e-06
1.64514e-05
-1.07843e-06
1.36983e-05
1.28571e-06
1.06804e-05
3.59223e-06
7.98306e-06
5.54679e-06
5.72299e-06
7.00486e-06
3.84003e-06
7.90455e-06
2.22546e-06
8.22274e-06
7.6759e-07
7.95216e-06
-6.39351e-07
7.09428e-06
-2.09888e-06
5.66616e-06
-3.71876e-06
3.72349e-06
-5.61489e-06
1.40586e-06
-7.90272e-06
-9.9296e-07
-1.06509e-05
-2.94229e-06
-1.37483e-05
-3.63802e-06
-1.66003e-05
-2.32321e-06
-1.73288e-05
-1.08878e-05
-2.50016e-06
1.32168e-05
-1.92357e-06
1.65283e-05
1.21716e-06
1.33107e-05
5.14901e-06
9.76647e-06
8.88691e-06
6.94254e-06
1.20252e-05
4.84478e-06
1.44425e-05
3.30567e-06
1.6138e-05
2.14453e-06
1.71467e-05
1.21677e-06
1.74996e-05
4.14663e-07
1.72076e-05
-3.47294e-07
1.62564e-05
-1.1477e-06
1.46106e-05
-2.073e-06
1.2229e-05
-3.23324e-06
9.10402e-06
-4.77775e-06
5.3489e-06
-6.8958e-06
1.36698e-06
-9.76641e-06
-1.84527e-06
-1.33881e-05
-2.4854e-06
-1.66886e-05
-1.33732e-05
-5.6385e-07
1.37806e-05
4.66701e-06
1.12974e-05
1.11131e-05
6.86458e-06
1.6693e-05
4.1866e-06
2.1019e-05
2.61651e-06
2.42004e-05
1.66337e-06
2.6443e-05
1.06305e-06
2.79272e-05
6.60395e-07
2.87794e-05
3.64581e-07
2.90725e-05
1.21521e-07
2.88304e-05
-1.05173e-07
2.80294e-05
-3.46747e-07
2.6596e-05
-6.39589e-07
2.44007e-05
-1.03797e-06
2.12567e-05
-1.63375e-06
1.69468e-05
-2.58589e-06
1.13484e-05
-4.16794e-06
4.84198e-06
-6.88169e-06
-4.82403e-07
-1.13643e-05
-1.38556e-05
1.37806e-05
2.5078e-05
3.19426e-05
3.61292e-05
3.87457e-05
4.04091e-05
4.14721e-05
4.21325e-05
4.24971e-05
4.26186e-05
4.25135e-05
4.21667e-05
4.15271e-05
4.04892e-05
3.88554e-05
3.62695e-05
3.21016e-05
2.52199e-05
1.38556e-05
)
;

boundaryField
{
    movingWall
    {
        type            calculated;
        value           uniform 0;
    }
    fixedWalls
    {
        type            calculated;
        value           uniform 0;
    }
    frontAndBack
    {
        type            empty;
        value           nonuniform 0();
    }
}


// ************************************************************************* //
