/*--------------------------------*- C++ -*----------------------------------*\
  =========                 |
  \\      /  F ield         | OpenFOAM: The Open Source CFD Toolbox
   \\    /   O peration     | Website:  https://openfoam.org
    \\  /    A nd           | Version:  6
     \\/     M anipulation  |
\*---------------------------------------------------------------------------*/
FoamFile
{
    version     2.0;
    format      ascii;
    class       volScalarField;
    location    "0.025";
    object      p;
}
// * * * * * * * * * * * * * * * * * * * * * * * * * * * * * * * * * * * * * //

dimensions      [0 2 -2 0 0 0 0];

internalField   nonuniform List<scalar> 
400
(
9.41791e-08
-0.00437686
-0.00903616
-0.0116829
-0.0112167
-0.00726488
4.43082e-05
0.0102505
0.0226866
0.0365561
0.0509812
0.0650379
0.0777943
0.0883606
0.0959669
0.100075
0.100538
0.0977783
0.0930012
0.0885896
0.00430506
-0.000199065
-0.0037762
-0.0053212
-0.0043503
-0.000581601
0.00592497
0.0148293
0.0256032
0.0375905
0.0500503
0.0621974
0.0732449
0.0824576
0.0892193
0.0931233
0.0940909
0.0924448
0.0887603
0.0842295
0.00924146
0.00308298
-0.000836437
-0.00221015
-0.00114631
0.00248912
0.00861016
0.0168993
0.0268836
0.0379769
0.0495124
0.0607788
0.0710601
0.0796849
0.0860839
0.0898641
0.0909135
0.0894055
0.0853331
0.0791178
0.0129145
0.00455202
-0.000405748
-0.00211338
-0.00115654
0.00245219
0.00855792
0.0168085
0.026729
0.0377494
0.049226
0.0604677
0.0707703
0.0794579
0.0859322
0.0897396
0.0906821
0.0887854
0.0835871
0.0750952
0.0143081
0.0036114
-0.00259753
-0.0047731
-0.00390452
-0.000138508
0.00628719
0.01496
0.0253723
0.0369402
0.0490116
0.0608829
0.0718243
0.0811133
0.0880774
0.0921592
0.0930468
0.0906237
0.0840471
0.073088
0.0127188
-0.000481462
-0.00806023
-0.0107021
-0.00978109
-0.00557867
0.00157023
0.0111711
0.022661
0.035419
0.048762
0.0619492
0.0741961
0.0846989
0.092669
0.0974025
0.0984379
0.0955021
0.0873811
0.0736883
0.00750491
-0.00851622
-0.0175707
-0.0205818
-0.0193563
-0.0143344
-0.00597162
0.00513318
0.0183427
0.0329841
0.0483298
0.0635868
0.0778958
0.090342
0.0999796
0.105905
0.107454
0.104145
0.0943216
0.0774349
-0.00211482
-0.0214372
-0.0320608
-0.0352335
-0.0333196
-0.0269722
-0.0168027
-0.00354007
0.0120908
0.0293602
0.0474955
0.0656507
0.0828848
0.0981515
0.110307
0.118183
0.120829
0.117458
0.105797
0.0850406
-0.0172465
-0.0405011
-0.0527377
-0.0557046
-0.0525388
-0.0441976
-0.0314993
-0.0153297
0.00349214
0.0241881
0.0459576
0.0679207
0.0890672
0.108215
0.123987
0.134873
0.139518
0.136665
0.123119
0.0976189
-0.0395156
-0.0674408
-0.0811901
-0.0833165
-0.0780648
-0.0668332
-0.0507126
-0.030772
-0.00791872
0.0170478
0.0433392
0.0700884
0.0962591
0.120558
0.141357
0.156722
0.16474
0.163432
0.148199
0.116944
-0.071322
-0.104673
-0.119501
-0.119689
-0.111091
-0.0957396
-0.0750718
-0.0503573
-0.0225663
0.00753356
0.039238
0.0717766
0.104175
0.135101
0.162701
0.184557
0.198014
0.200015
0.183815
0.145812
-0.116241
-0.155591
-0.170374
-0.166719
-0.152841
-0.131649
-0.104996
-0.0743417
-0.040658
-0.00459159
0.0333487
0.072621
0.11246
0.151642
0.188199
0.219228
0.24117
0.249424
0.23401
0.188604
-0.179732
-0.225009
-0.237238
-0.22646
-0.204315
-0.174859
-0.140377
-0.102441
-0.0619051
-0.0191503
0.0256699
0.0724275
0.120786
0.169881
0.217872
0.261532
0.29633
0.315618
0.304662
0.252262
-0.270578
-0.31985
-0.324259
-0.300756
-0.265784
-0.224703
-0.180089
-0.133408
-0.0851602
-0.0352437
0.016761
0.0713774
0.128988
0.189455
0.25151
0.312033
0.365753
0.40364
0.404364
0.348147
-0.403871
-0.45015
-0.43594
-0.390337
-0.335821
-0.278706
-0.221327
-0.164539
-0.10807
-0.0510027
0.00792479
0.0701552
0.13712
0.209881
0.288422
0.370605
0.451286
0.519425
0.545614
0.495593
-0.606391
-0.629962
-0.575941
-0.49329
-0.40998
-0.331642
-0.259051
-0.191429
-0.127024
-0.063653
0.00109005
0.0698129
0.145301
0.230323
0.327021
0.435722
0.55335
0.668842
0.745575
0.727432
-0.926541
-0.877282
-0.744962
-0.603717
-0.480139
-0.37544
-0.286343
-0.208599
-0.137902
-0.0702636
-0.00188103
0.071164
0.153204
0.249164
0.364425
0.503939
0.669942
0.855813
1.02581
1.0992
-1.47355
-1.21396
-0.931141
-0.704723
-0.530783
-0.39777
-0.294388
-0.21022
-0.137142
-0.0689889
-0.000575442
0.0731778
0.158042
0.261299
0.392616
0.564279
0.788482
1.07293
1.41476
1.73044
-2.53878
-1.65147
-1.06365
-0.732111
-0.517363
-0.370406
-0.266463
-0.187167
-0.120588
-0.0591485
0.00276179
0.070388
0.149905
0.24998
0.384181
0.573693
0.847343
1.25458
1.93277
2.92146
-4.36175
-2.06574
-0.998422
-0.593017
-0.389818
-0.269343
-0.192344
-0.13611
-0.0883512
-0.0427248
0.00475911
0.0576616
0.120463
0.200343
0.310673
0.477126
0.747602
1.24929
2.43144
4.84156
)
;

boundaryField
{
    movingWall
    {
        type            zeroGradient;
    }
    fixedWalls
    {
        type            zeroGradient;
    }
    frontAndBack
    {
        type            empty;
    }
}


// ************************************************************************* //
