/*--------------------------------*- C++ -*----------------------------------*\
  =========                 |
  \\      /  F ield         | OpenFOAM: The Open Source CFD Toolbox
   \\    /   O peration     | Website:  https://openfoam.org
    \\  /    A nd           | Version:  6
     \\/     M anipulation  |
\*---------------------------------------------------------------------------*/
FoamFile
{
    version     2.0;
    format      ascii;
    class       surfaceScalarField;
    location    "0.025";
    object      phi;
}
// * * * * * * * * * * * * * * * * * * * * * * * * * * * * * * * * * * * * * //

dimensions      [0 3 -1 0 0 0 0];

internalField   nonuniform List<scalar> 
760
(
6.1316e-09
-6.13193e-09
-2.96859e-08
3.58175e-08
-1.05922e-07
7.6237e-08
-2.07473e-07
1.01551e-07
-3.18962e-07
1.11489e-07
-4.27221e-07
1.08259e-07
-5.21878e-07
9.46571e-08
-5.95302e-07
7.34232e-08
-6.42242e-07
4.69399e-08
-6.59481e-07
1.72388e-08
-6.45641e-07
-1.384e-08
-6.0121e-07
-4.44305e-08
-5.28782e-07
-7.24287e-08
-4.33442e-07
-9.53398e-08
-3.232e-07
-1.10242e-07
-2.09245e-07
-1.13955e-07
-1.05716e-07
-1.03529e-07
-2.86934e-08
-7.70222e-08
6.74585e-09
-3.54391e-08
6.74607e-09
-3.40813e-08
2.79493e-08
-1.55359e-07
1.57095e-07
-3.52619e-07
2.73497e-07
-5.9896e-07
3.47891e-07
-8.64085e-07
3.76615e-07
-1.12003e-06
3.64204e-07
-1.34357e-06
3.18201e-07
-1.51694e-06
2.46784e-07
-1.62758e-06
1.57584e-07
-1.66779e-06
5.7453e-08
-1.63441e-06
-4.72203e-08
-1.52889e-06
-1.49952e-07
-1.35773e-06
-2.4359e-07
-1.13313e-06
-3.19945e-07
-8.73531e-07
-3.69837e-07
-6.03661e-07
-3.83825e-07
-3.53288e-07
-3.53901e-07
-1.54065e-07
-2.76245e-07
-3.30523e-08
-1.56451e-07
-2.63062e-08
-7.61158e-08
1.04066e-07
-2.81774e-07
3.62755e-07
-5.86872e-07
5.78595e-07
-9.52776e-07
7.13796e-07
-1.33885e-06
7.62693e-07
-1.70774e-06
7.33086e-07
-2.02814e-06
6.38602e-07
-2.27585e-06
4.94495e-07
-2.43368e-06
3.1541e-07
-2.49099e-06
1.14772e-07
-2.44346e-06
-9.4758e-08
-2.29309e-06
-3.00323e-07
-2.04882e-06
-4.87859e-07
-1.7273e-06
-6.41462e-07
-1.35354e-06
-7.43596e-07
-9.60779e-07
-7.76585e-07
-5.88869e-07
-7.25812e-07
-2.80479e-07
-5.84636e-07
-7.47622e-08
-3.62168e-07
-1.01069e-07
-1.11858e-07
2.15923e-07
-3.96399e-07
6.47296e-07
-8.02812e-07
9.85008e-07
-1.27829e-06
1.18927e-06
-1.77187e-06
1.25628e-06
-2.23844e-06
1.19965e-06
-2.6409e-06
1.04106e-06
-2.95083e-06
8.0443e-07
-3.14816e-06
5.12736e-07
-3.22044e-06
1.87053e-07
-3.16244e-06
-1.52753e-07
-2.97625e-06
-4.86517e-07
-2.67194e-06
-7.92171e-07
-2.26868e-06
-1.04473e-06
-1.79572e-06
-1.21655e-06
-1.29264e-06
-1.27967e-06
-8.0798e-07
-1.21047e-06
-3.95813e-07
-9.96804e-07
-1.10226e-07
-6.47755e-07
-2.11294e-07
-1.44291e-07
3.60215e-07
-5.0564e-07
1.00864e-06
-1.01276e-06
1.49213e-06
-1.59673e-06
1.77324e-06
-2.19513e-06
1.85468e-06
-2.75514e-06
1.75967e-06
-3.23481e-06
1.52073e-06
-3.60281e-06
1.17243e-06
-3.83734e-06
7.47264e-07
-3.92487e-06
2.74586e-07
-3.85941e-06
-2.18213e-07
-3.64253e-06
-7.03398e-07
-3.28431e-06
-1.15039e-06
-2.80495e-06
-1.52409e-06
-2.23654e-06
-1.78496e-06
-1.6242e-06
-1.89201e-06
-1.02553e-06
-1.80913e-06
-5.07852e-07
-1.51448e-06
-1.4285e-07
-1.01276e-06
-3.54145e-07
-1.77489e-07
5.37704e-07
-6.1975e-07
1.45091e-06
-1.23387e-06
2.10625e-06
-1.93256e-06
2.47192e-06
-2.64035e-06
2.56247e-06
-3.29631e-06
2.41562e-06
-3.85413e-06
2.07855e-06
-4.28058e-06
1.59888e-06
-4.55315e-06
1.01983e-06
-4.65785e-06
3.79287e-07
-4.58795e-06
-2.88106e-07
-4.34389e-06
-9.47459e-07
-3.93454e-06
-1.55975e-06
-3.37965e-06
-2.07898e-06
-2.71289e-06
-2.45172e-06
-1.98448e-06
-2.62043e-06
-1.26206e-06
-2.53154e-06
-6.28757e-07
-2.14779e-06
-1.77313e-07
-1.4642e-06
-5.31457e-07
-2.15448e-07
7.53152e-07
-7.49541e-07
1.985e-06
-1.48384e-06
2.84056e-06
-2.30932e-06
3.2974e-06
-3.13556e-06
3.38871e-06
-3.89317e-06
3.17323e-06
-4.53229e-06
2.71768e-06
-5.01909e-06
2.08568e-06
-5.3316e-06
1.33234e-06
-5.45622e-06
5.03906e-07
-5.38557e-06
-3.58759e-07
-5.11819e-06
-1.21484e-06
-4.66027e-06
-2.01766e-06
-4.02921e-06
-2.71004e-06
-3.25842e-06
-3.22251e-06
-2.4023e-06
-3.47655e-06
-1.53939e-06
-3.39445e-06
-7.71768e-07
-2.91542e-06
-2.18397e-07
-2.01757e-06
-7.49855e-07
-2.6202e-07
1.01517e-06
-9.05443e-07
2.62842e-06
-1.77893e-06
3.71404e-06
-2.74678e-06
4.26525e-06
-3.70158e-06
4.34351e-06
-4.56576e-06
4.03741e-06
-5.28759e-06
3.4395e-06
-5.83478e-06
2.63287e-06
-6.1879e-06
1.68546e-06
-6.335e-06
6.51008e-07
-6.26837e-06
-4.25393e-07
-5.98385e-06
-1.49935e-06
-5.48303e-06
-2.51849e-06
-4.77814e-06
-3.41493e-06
-3.89935e-06
-4.10129e-06
-2.90302e-06
-4.47289e-06
-1.87852e-06
-4.41895e-06
-9.50297e-07
-3.84364e-06
-2.70984e-07
-2.69688e-06
-1.02084e-06
-3.21042e-07
1.33621e-06
-1.09717e-06
3.40455e-06
-2.13251e-06
4.74939e-06
-3.25808e-06
5.39082e-06
-4.34774e-06
5.43317e-06
-5.31735e-06
5.00702e-06
-6.11654e-06
4.23869e-06
-6.71815e-06
3.23448e-06
-7.10833e-06
2.07564e-06
-7.2788e-06
8.21487e-07
-7.22225e-06
-4.81948e-07
-6.93104e-06
-1.79056e-06
-6.39974e-06
-3.04978e-06
-5.63157e-06
-4.1831e-06
-4.64859e-06
-5.08428e-06
-3.50458e-06
-5.61689e-06
-2.29765e-06
-5.62588e-06
-1.17749e-06
-4.9638e-06
-3.40214e-07
-3.53416e-06
-1.36105e-06
-3.96666e-07
1.73288e-06
-1.33364e-06
4.34152e-06
-2.5535e-06
5.96925e-06
-3.84594e-06
6.68325e-06
-5.06571e-06
6.65295e-06
-6.12618e-06
6.06749e-06
-6.98402e-06
5.09652e-06
-7.62269e-06
3.87316e-06
-8.03832e-06
2.49127e-06
-8.22926e-06
1.01242e-06
-8.18986e-06
-5.21345e-07
-7.90851e-06
-2.07192e-06
-7.37011e-06
-3.58818e-06
-6.56384e-06
-4.98937e-06
-5.49652e-06
-6.15159e-06
-4.2114e-06
-6.90201e-06
-2.80931e-06
-7.02797e-06
-1.46574e-06
-6.30737e-06
-4.31827e-07
-4.56807e-06
-1.79288e-06
-4.93977e-07
2.22686e-06
-1.62294e-06
5.47049e-06
-3.04385e-06
7.39015e-06
-4.49672e-06
8.13612e-06
-5.82032e-06
7.97656e-06
-6.93378e-06
7.18095e-06
-7.80986e-06
5.9726e-06
-8.45041e-06
4.51371e-06
-8.86723e-06
2.90809e-06
-9.06909e-06
1.21428e-06
-9.05403e-06
-5.36399e-07
-8.80653e-06
-2.31942e-06
-8.2995e-06
-4.09521e-06
-7.50243e-06
-5.78645e-06
-6.39747e-06
-7.25655e-06
-5.00476e-06
-8.29473e-06
-3.41551e-06
-8.61722e-06
-1.82572e-06
-7.89715e-06
-5.52687e-07
-5.84111e-06
-2.34557e-06
-6.20175e-07
2.84703e-06
-1.97227e-06
6.82258e-06
-3.59433e-06
9.01222e-06
-5.1713e-06
9.71309e-06
-6.53631e-06
9.34157e-06
-7.62911e-06
8.27375e-06
-8.45192e-06
6.7954e-06
-9.03464e-06
5.09643e-06
-9.41119e-06
3.28464e-06
-9.60479e-06
1.40788e-06
-9.61972e-06
-5.21471e-07
-9.43768e-06
-2.50146e-06
-9.01855e-06
-4.51434e-06
-8.3073e-06
-6.4977e-06
-7.25068e-06
-8.31317e-06
-5.82814e-06
-9.71727e-06
-4.09951e-06
-1.03458e-05
-2.26451e-06
-9.73216e-06
-7.11721e-07
-7.3939e-06
-3.05729e-06
-7.86883e-07
3.63391e-06
-2.38728e-06
8.42299e-06
-4.17676e-06
1.08017e-05
-5.7901e-06
1.13264e-05
-7.07903e-06
1.06305e-05
-8.02822e-06
9.22294e-06
-8.68677e-06
7.45395e-06
-9.12292e-06
5.53258e-06
-9.39792e-06
3.55964e-06
-9.55234e-06
1.5623e-06
-9.59911e-06
-4.74698e-07
-9.51974e-06
-2.58083e-06
-9.26288e-06
-4.7712e-06
-8.74745e-06
-7.01312e-06
-7.87576e-06
-9.18487e-06
-6.56567e-06
-1.10274e-05
-4.81209e-06
-1.20994e-05
-2.78163e-06
-1.17626e-05
-9.21619e-07
-9.25391e-06
-3.97891e-06
-1.01408e-06
4.64799e-06
-2.86874e-06
1.02776e-05
-4.72746e-06
1.26604e-05
-6.20719e-06
1.28062e-05
-7.22589e-06
1.16492e-05
-7.84858e-06
9.84563e-06
-8.19014e-06
7.79552e-06
-8.36389e-06
5.70633e-06
-8.45896e-06
3.65471e-06
-8.5325e-06
1.63584e-06
-8.60703e-06
-4.00169e-07
-8.66782e-06
-2.52004e-06
-8.65874e-06
-4.78028e-06
-8.47831e-06
-7.19355e-06
-7.98285e-06
-9.68033e-06
-7.01036e-06
-1.19998e-05
-5.44701e-06
-1.36628e-05
-3.3597e-06
-1.38499e-05
-1.20113e-06
-1.14125e-05
-5.18003e-06
-1.33384e-06
5.98184e-06
-3.39665e-06
1.23404e-05
-5.1086e-06
1.43724e-05
-6.1619e-06
1.38595e-05
-6.62251e-06
1.21098e-05
-6.67788e-06
9.901e-06
-6.52051e-06
7.63815e-06
-6.30439e-06
5.49021e-06
-6.137e-06
3.48732e-06
-6.08418e-06
1.58302e-06
-6.17552e-06
-3.08826e-07
-6.40479e-06
-2.29077e-06
-6.72317e-06
-4.4619e-06
-7.02601e-06
-6.89071e-06
-7.1385e-06
-9.56784e-06
-6.81621e-06
-1.23221e-05
-5.79408e-06
-1.46849e-05
-3.93804e-06
-1.5706e-05
-1.57419e-06
-1.37763e-05
-6.75422e-06
-1.78021e-06
7.76205e-06
-3.87031e-06
1.44305e-05
-5.01438e-06
1.55164e-05
-5.18688e-06
1.4032e-05
-4.71549e-06
1.16384e-05
-3.93856e-06
9.12407e-06
-3.1125e-06
6.8121e-06
-2.40506e-06
4.78276e-06
-1.91665e-06
2.99891e-06
-1.70414e-06
1.3705e-06
-1.79652e-06
-2.1644e-07
-2.19983e-06
-1.88746e-06
-2.88947e-06
-3.77226e-06
-3.78841e-06
-5.99177e-06
-4.73146e-06
-8.62479e-06
-5.42608e-06
-1.16275e-05
-5.44557e-06
-1.46654e-05
-4.33749e-06
-1.68141e-05
-2.04815e-06
-1.60657e-05
-8.80238e-06
-2.32034e-06
1.00824e-05
-3.92263e-06
1.60328e-05
-3.75698e-06
1.53508e-05
-2.4418e-06
1.27168e-05
-6.58311e-07
9.85492e-06
1.14207e-06
7.32368e-06
2.70686e-06
5.24731e-06
3.91431e-06
3.57531e-06
4.71316e-06
2.20006e-06
5.08132e-06
1.00234e-06
5.00258e-06
-1.37699e-07
4.45808e-06
-1.34296e-06
3.43176e-06
-2.74595e-06
1.93399e-06
-4.494e-06
5.15669e-08
-6.74237e-06
-1.96916e-06
-9.60678e-06
-3.61911e-06
-1.30155e-05
-4.07284e-06
-1.63603e-05
-2.5237e-06
-1.76148e-05
-1.13261e-05
-2.60968e-06
1.26921e-05
-2.42608e-06
1.58492e-05
1.78761e-07
1.27459e-05
3.55344e-06
9.34212e-06
6.79133e-06
6.61703e-06
9.52615e-06
4.58887e-06
1.16543e-05
3.1192e-06
1.31849e-05
2.04472e-06
1.416e-05
1.22487e-06
1.46142e-05
5.48157e-07
1.4555e-05
-7.84482e-08
1.39552e-05
-7.43132e-07
1.27531e-05
-1.54388e-06
1.0865e-05
-2.60591e-06
8.22397e-06
-4.10133e-06
4.87369e-06
-6.2565e-06
1.16023e-06
-9.302e-06
-1.93165e-06
-1.32685e-05
-2.53945e-06
-1.7007e-05
-1.38655e-05
-8.5794e-07
1.355e-05
3.95261e-06
1.10387e-05
9.9847e-06
6.71385e-06
1.52065e-05
4.12034e-06
1.92478e-05
2.57568e-06
2.22144e-05
1.6223e-06
2.43096e-05
1.024e-06
2.57193e-05
6.34972e-07
2.658e-05
3.64213e-07
2.69734e-05
1.54704e-07
2.69282e-05
-3.31985e-08
2.64186e-05
-2.33557e-07
2.53597e-05
-4.85019e-07
2.35978e-05
-8.43993e-07
2.0903e-05
-1.40653e-06
1.69917e-05
-2.34513e-06
1.16583e-05
-3.96866e-06
5.21468e-06
-6.82483e-06
-2.60177e-07
-1.15321e-05
-1.41257e-05
1.355e-05
2.45887e-05
3.13025e-05
3.54229e-05
3.79986e-05
3.96209e-05
4.06449e-05
4.12798e-05
4.16441e-05
4.17988e-05
4.17656e-05
4.1532e-05
4.1047e-05
4.0203e-05
3.87965e-05
3.64513e-05
3.24827e-05
2.56578e-05
1.41257e-05
)
;

boundaryField
{
    movingWall
    {
        type            calculated;
        value           uniform 0;
    }
    fixedWalls
    {
        type            calculated;
        value           uniform 0;
    }
    frontAndBack
    {
        type            empty;
        value           nonuniform 0();
    }
}


// ************************************************************************* //
