/*--------------------------------*- C++ -*----------------------------------*\
  =========                 |
  \\      /  F ield         | OpenFOAM: The Open Source CFD Toolbox
   \\    /   O peration     | Website:  https://openfoam.org
    \\  /    A nd           | Version:  6
     \\/     M anipulation  |
\*---------------------------------------------------------------------------*/
FoamFile
{
    version     2.0;
    format      ascii;
    class       volVectorField;
    location    "0.025";
    object      U;
}
// * * * * * * * * * * * * * * * * * * * * * * * * * * * * * * * * * * * * * //

dimensions      [0 1 -1 0 0 0 0];

internalField   nonuniform List<vector> 
400
(
(0.000142549 -0.000140918 0)
(-7.47598e-05 0.000172454 0)
(-0.00122683 0.000506261 0)
(-0.00306437 0.000715597 0)
(-0.00525267 0.000799301 0)
(-0.0074991 0.000780011 0)
(-0.00956661 0.000682725 0)
(-0.0112752 0.000529861 0)
(-0.0124972 0.000339577 0)
(-0.0131489 0.000126437 0)
(-0.0131845 -9.68655e-05 0)
(-0.0125948 -0.000317485 0)
(-0.0114094 -0.000520515 0)
(-0.0097035 -0.000687493 0)
(-0.00760719 -0.000795694 0)
(-0.00531305 -0.000818953 0)
(-0.00307733 -0.00073098 0)
(-0.0012107 -0.00051151 0)
(-5.55265e-05 -0.000168213 0)
(0.000150207 0.000146536 0)
(-0.00014746 5.3395e-05 0)
(-0.00150926 0.00153465 0)
(-0.00477353 0.00295759 0)
(-0.00936076 0.00387255 0)
(-0.0146147 0.00423611 0)
(-0.0199446 0.00411284 0)
(-0.0248352 0.00359894 0)
(-0.0288748 0.00279365 0)
(-0.0317617 0.00178635 0)
(-0.0332954 0.000655089 0)
(-0.0333676 -0.000528458 0)
(-0.0319601 -0.0016916 0)
(-0.0291499 -0.00275323 0)
(-0.025121 -0.00361878 0)
(-0.0201785 -0.00417974 0)
(-0.0147574 -0.00432133 0)
(-0.00940859 -0.0039419 0)
(-0.004758 -0.00298622 0)
(-0.00147834 -0.00152248 0)
(-0.000134108 -3.1268e-05 0)
(-0.000477512 0.00115893 0)
(-0.00302413 0.00480604 0)
(-0.00826562 0.00799385 0)
(-0.0152021 0.0100283 0)
(-0.022917 0.0108007 0)
(-0.0306316 0.0104241 0)
(-0.0376579 0.00910085 0)
(-0.043438 0.00705626 0)
(-0.0475594 0.00450461 0)
(-0.0497461 0.0016409 0)
(-0.0498494 -0.00135169 0)
(-0.0478444 -0.00428718 0)
(-0.0438372 -0.00696151 0)
(-0.0380799 -0.00914304 0)
(-0.0309874 -0.010575 0)
(-0.0231469 -0.0109971 0)
(-0.0152946 -0.010194 0)
(-0.00825918 -0.00807123 0)
(-0.00298577 -0.00478939 0)
(-0.000459334 -0.0011127 0)
(-0.000746065 0.00305392 0)
(-0.00436869 0.00974082 0)
(-0.0114775 0.0151567 0)
(-0.0205983 0.0185073 0)
(-0.0305321 0.0196774 0)
(-0.0403331 0.018865 0)
(-0.0491826 0.0164111 0)
(-0.0564237 0.0126986 0)
(-0.0615741 0.00809737 0)
(-0.0643121 0.00294794 0)
(-0.0644624 -0.00242765 0)
(-0.0619915 -0.00770235 0)
(-0.0570164 -0.0125189 0)
(-0.0498238 -0.0164746 0)
(-0.0408948 -0.0191265 0)
(-0.0309214 -0.0200297 0)
(-0.0207854 -0.0188166 0)
(-0.0115047 -0.0153164 0)
(-0.00432797 -0.00972957 0)
(-0.000722009 -0.00297585 0)
(-0.000976877 0.00561763 0)
(-0.0056203 0.0161968 0)
(-0.0145771 0.0242837 0)
(-0.0258718 0.0290952 0)
(-0.037988 0.0305981 0)
(-0.0498022 0.0291395 0)
(-0.0603776 0.0252453 0)
(-0.0689831 0.0194898 0)
(-0.0750929 0.0124215 0)
(-0.0783599 0.00454211 0)
(-0.0785911 -0.00367601 0)
(-0.07574 -0.0117539 0)
(-0.0699164 -0.0191665 0)
(-0.0614141 -0.0253176 0)
(-0.050749 -0.0295451 0)
(-0.038693 -0.0311745 0)
(-0.0262673 -0.0296288 0)
(-0.0147014 -0.0245918 0)
(-0.00559828 -0.0162219 0)
(-0.000948992 -0.00550508 0)
(-0.00120713 0.0088225 0)
(-0.00691483 0.0241977 0)
(-0.017833 0.0354495 0)
(-0.0314369 0.0418765 0)
(-0.0458481 0.0436246 0)
(-0.0597451 0.0412761 0)
(-0.0720763 0.0356072 0)
(-0.0820537 0.0274265 0)
(-0.0891308 0.0174846 0)
(-0.0929523 0.00645365 0)
(-0.0933153 -0.00504357 0)
(-0.0901539 -0.0163773 0)
(-0.0835517 -0.0268501 0)
(-0.0737807 -0.0356541 0)
(-0.0613614 -0.0418704 0)
(-0.0471256 -0.0445333 0)
(-0.0322364 -0.0427736 0)
(-0.0181708 -0.0360325 0)
(-0.0069556 -0.0243336 0)
(-0.0011821 -0.00868716 0)
(-0.00147226 0.0127241 0)
(-0.0083942 0.0338969 0)
(-0.0215307 0.0488584 0)
(-0.0377113 0.0570515 0)
(-0.0546341 0.0589172 0)
(-0.0707597 0.0553839 0)
(-0.0849294 0.0475636 0)
(-0.0963223 0.0365528 0)
(-0.104399 0.0233285 0)
(-0.108819 0.00873472 0)
(-0.10938 -0.00646731 0)
(-0.105989 -0.0215123 0)
(-0.0986814 -0.0355377 0)
(-0.0876707 -0.047512 0)
(-0.0734414 -0.056217 0)
(-0.0568539 -0.0603162 0)
(-0.0392081 -0.0585339 0)
(-0.0222649 -0.0499354 0)
(-0.00857202 -0.0342918 0)
(-0.00146299 -0.0126062 0)
(-0.00180645 0.0174566 0)
(-0.0101976 0.0455809 0)
(-0.0259435 0.0648389 0)
(-0.0450674 0.0749097 0)
(-0.064763 0.0766853 0)
(-0.0832618 0.0715891 0)
(-0.099323 0.0611792 0)
(-0.112135 0.0469044 0)
(-0.12121 0.0299904 0)
(-0.126257 0.0114436 0)
(-0.12709 -0.00786457 0)
(-0.123586 -0.0270677 0)
(-0.115703 -0.0451631 0)
(-0.103547 -0.0608954 0)
(-0.0875058 -0.0727044 0)
(-0.0684092 -0.0787857 0)
(-0.0476628 -0.0773035 0)
(-0.0273371 -0.0667574 0)
(-0.0106254 -0.0464925 0)
(-0.0018345 -0.017443 0)
(-0.00224568 0.0232309 0)
(-0.0124625 0.0596637 0)
(-0.0313167 0.0838218 0)
(-0.0537895 0.0957827 0)
(-0.0764743 0.0971208 0)
(-0.0973843 0.0899587 0)
(-0.115254 0.0764415 0)
(-0.129356 0.058444 0)
(-0.139321 0.0374568 0)
(-0.144962 0.0146227 0)
(-0.146136 -0.00912786 0)
(-0.142691 -0.0328874 0)
(-0.134477 -0.0555651 0)
(-0.121428 -0.0757037 0)
(-0.103741 -0.0913686 0)
(-0.0821178 -0.100176 0)
(-0.0579874 -0.0995306 0)
(-0.0337204 -0.0870921 0)
(-0.0133015 -0.0615015 0)
(-0.00234459 -0.0234785 0)
(-0.00283343 0.0303372 0)
(-0.0153326 0.0766691 0)
(-0.0378553 0.106284 0)
(-0.0640213 0.119951 0)
(-0.089729 0.120281 0)
(-0.112831 0.110376 0)
(-0.132149 0.0931454 0)
(-0.147155 0.0709662 0)
(-0.157703 0.0455953 0)
(-0.163781 0.0182622 0)
(-0.165336 -0.0101249 0)
(-0.162194 -0.0387116 0)
(-0.154065 -0.0664083 0)
(-0.140638 -0.0916156 0)
(-0.121796 -0.11202 0)
(-0.0979465 -0.124551 0)
(-0.0703865 -0.1256 0)
(-0.0417004 -0.111601 0)
(-0.0167997 -0.080038 0)
(-0.0030532 -0.0311026 0)
(-0.00363102 0.0391567 0)
(-0.0189718 0.0972043 0)
(-0.0457053 0.132655 0)
(-0.0756843 0.147498 0)
(-0.104058 0.145914 0)
(-0.128665 0.13237 0)
(-0.148606 0.110742 0)
(-0.163727 0.0839769 0)
(-0.174241 0.0540689 0)
(-0.180404 0.0222501 0)
(-0.182311 -0.0107093 0)
(-0.179789 -0.0441419 0)
(-0.172389 -0.0770961 0)
(-0.159476 -0.107946 0)
(-0.140471 -0.134054 0)
(-0.115263 -0.151583 0)
(-0.0847368 -0.155634 0)
(-0.0514642 -0.140882 0)
(-0.0213412 -0.102937 0)
(-0.0040436 -0.0408311 0)
(-0.00473746 0.0501913 0)
(-0.0235901 0.121917 0)
(-0.054919 0.163166 0)
(-0.0883422 0.178076 0)
(-0.118328 0.173212 0)
(-0.143008 0.154888 0)
(-0.162065 0.128156 0)
(-0.175951 0.0965551 0)
(-0.185394 0.062238 0)
(-0.191021 0.0263112 0)
(-0.193136 -0.0107454 0)
(-0.191605 -0.0486216 0)
(-0.185826 -0.0866908 0)
(-0.174793 -0.123492 0)
(-0.157318 -0.156208 0)
(-0.132487 -0.180256 0)
(-0.100352 -0.189187 0)
(-0.0630074 -0.175251 0)
(-0.0271793 -0.131075 0)
(-0.00544292 -0.0533385 0)
(-0.00632843 0.0641306 0)
(-0.0294855 0.151421 0)
(-0.0653792 0.197585 0)
(-0.100964 0.210564 0)
(-0.130386 0.20047 0)
(-0.152631 0.176023 0)
(-0.168398 0.143591 0)
(-0.179018 0.107226 0)
(-0.185874 0.0690779 0)
(-0.190032 0.0299495 0)
(-0.192053 -0.0101466 0)
(-0.191891 -0.0514463 0)
(-0.188845 -0.0938708 0)
(-0.181556 -0.136392 0)
(-0.168142 -0.176304 0)
(-0.146607 -0.208469 0)
(-0.115606 -0.224787 0)
(-0.0759585 -0.214351 0)
(-0.034608 -0.165219 0)
(-0.0074592 -0.0695216 0)
(-0.00872498 0.0819829 0)
(-0.0370901 0.186129 0)
(-0.0766 0.234767 0)
(-0.11147 0.242541 0)
(-0.136482 0.224663 0)
(-0.152392 0.192743 0)
(-0.161458 0.154394 0)
(-0.166115 0.11391 0)
(-0.168446 0.0731625 0)
(-0.169937 0.0324274 0)
(-0.171395 -0.00892084 0)
(-0.17291 -0.051828 0)
(-0.173794 -0.0969787 0)
(-0.172477 -0.144101 0)
(-0.166462 -0.191046 0)
(-0.152524 -0.232616 0)
(-0.127327 -0.259305 0)
(-0.0892209 -0.256525 0)
(-0.043931 -0.20572 0)
(-0.0104378 -0.0906028 0)
(-0.012473 0.105279 0)
(-0.0469001 0.225858 0)
(-0.0871471 0.271881 0)
(-0.115791 0.269588 0)
(-0.13029 0.241028 0)
(-0.134463 0.200758 0)
(-0.132597 0.157113 0)
(-0.128239 0.114069 0)
(-0.123993 0.0728014 0)
(-0.121565 0.0328338 0)
(-0.121892 -0.00720544 0)
(-0.125218 -0.0490384 0)
(-0.13104 -0.0942391 0)
(-0.137887 -0.143588 0)
(-0.143021 -0.196068 0)
(-0.142199 -0.247282 0)
(-0.12976 -0.287232 0)
(-0.100164 -0.297839 0)
(-0.0552153 -0.251854 0)
(-0.0148905 -0.118242 0)
(-0.0182497 0.136417 0)
(-0.0587876 0.268887 0)
(-0.0929646 0.303059 0)
(-0.105862 0.284423 0)
(-0.101261 0.242856 0)
(-0.0873086 0.194778 0)
(-0.0702801 0.14798 0)
(-0.0543273 0.105197 0)
(-0.0420095 0.0664332 0)
(-0.0348053 0.0303031 0)
(-0.033522 -0.00526462 0)
(-0.0385124 -0.0426441 0)
(-0.049654 -0.0842176 0)
(-0.0660596 -0.13194 0)
(-0.0854984 -0.186468 0)
(-0.103569 -0.24539 0)
(-0.112783 -0.30004 0)
(-0.102748 -0.330646 0)
(-0.0672417 -0.300549 0)
(-0.0212425 -0.154706 0)
(-0.0258609 0.179525 0)
(-0.069251 0.309699 0)
(-0.083023 0.316855 0)
(-0.0655945 0.275798 0)
(-0.0320012 0.221708 0)
(0.00546594 0.169411 0)
(0.039954 0.123951 0)
(0.0680539 0.0857472 0)
(0.0882713 0.0532988 0)
(0.100019 0.0243994 0)
(0.10299 -0.0034212 0)
(0.0968433 -0.0327926 0)
(0.0811719 -0.0665022 0)
(0.0557615 -0.107415 0)
(0.0212867 -0.158028 0)
(-0.0193659 -0.21903 0)
(-0.0589881 -0.285795 0)
(-0.0835393 -0.341457 0)
(-0.0743251 -0.343858 0)
(-0.0284446 -0.203368 0)
(-0.0293267 0.238324 0)
(-0.0627107 0.332327 0)
(-0.0293611 0.292747 0)
(0.0362653 0.228861 0)
(0.105151 0.169704 0)
(0.165798 0.121772 0)
(0.2146 0.0848965 0)
(0.251066 0.0566948 0)
(0.275945 0.0344427 0)
(0.290135 0.0156498 0)
(0.294119 -0.00194962 0)
(0.287721 -0.0205884 0)
(0.270031 -0.0427219 0)
(0.239488 -0.0713047 0)
(0.194343 -0.109962 0)
(0.133851 -0.16256 0)
(0.0606126 -0.230982 0)
(-0.0140216 -0.308865 0)
(-0.0580211 -0.362012 0)
(-0.0284171 -0.26468 0)
(0.0096572 0.28132 0)
(0.0203726 0.293884 0)
(0.135025 0.208089 0)
(0.255647 0.139022 0)
(0.34955 0.0918515 0)
(0.418816 0.0602857 0)
(0.468615 0.039235 0)
(0.503026 0.0248871 0)
(0.525276 0.0145592 0)
(0.537575 0.00639942 0)
(0.541037 -0.000979561 0)
(0.535706 -0.00881881 0)
(0.520498 -0.0185159 0)
(0.493044 -0.0320063 0)
(0.449544 -0.0523171 0)
(0.384773 -0.0842631 0)
(0.2918 -0.134922 0)
(0.165951 -0.212417 0)
(0.0401667 -0.308998 0)
(0.0197405 -0.2984 0)
(0.301262 0.145779 0)
(0.39819 0.127111 0)
(0.557052 0.0755204 0)
(0.672087 0.0429076 0)
(0.738856 0.0246027 0)
(0.779126 0.0142568 0)
(0.804575 0.00833639 0)
(0.820608 0.00483863 0)
(0.830271 0.00262248 0)
(0.835294 0.00103785 0)
(0.83648 -0.000320379 0)
(0.833919 -0.00177181 0)
(0.827002 -0.00367821 0)
(0.814209 -0.00660813 0)
(0.792627 -0.0116284 0)
(0.756836 -0.0208461 0)
(0.694858 -0.0383874 0)
(0.58201 -0.0718148 0)
(0.416962 -0.127037 0)
(0.310374 -0.148896 0)
)
;

boundaryField
{
    movingWall
    {
        type            fixedValue;
        value           uniform (1 0 0);
    }
    fixedWalls
    {
        type            noSlip;
    }
    frontAndBack
    {
        type            empty;
    }
}


// ************************************************************************* //
