/*--------------------------------*- C++ -*----------------------------------*\
  =========                 |
  \\      /  F ield         | OpenFOAM: The Open Source CFD Toolbox
   \\    /   O peration     | Website:  https://openfoam.org
    \\  /    A nd           | Version:  6
     \\/     M anipulation  |
\*---------------------------------------------------------------------------*/
FoamFile
{
    version     2.0;
    format      ascii;
    class       volScalarField;
    location    "0.015";
    object      p;
}
// * * * * * * * * * * * * * * * * * * * * * * * * * * * * * * * * * * * * * //

dimensions      [0 2 -2 0 0 0 0];

internalField   nonuniform List<scalar> 
400
(
2.38381e-08
-0.000501722
-0.000214006
0.00101684
0.00309923
0.00594197
0.00944345
0.0134846
0.0179321
0.0226408
0.0274574
0.0322231
0.0367773
0.0409624
0.0446271
0.0476323
0.0498563
0.0511917
0.0515359
0.0510448
0.000486376
-4.06337e-05
0.000301403
0.00154271
0.00358379
0.00635767
0.00977548
0.0137238
0.0180727
0.0226802
0.0273953
0.0320613
0.0365203
0.0406168
0.0442027
0.0471436
0.0493297
0.0506766
0.0510741
0.0505561
0.000209114
-0.000441236
-0.000111184
0.0011543
0.0032253
0.00603699
0.00950206
0.0135065
0.0179195
0.0225975
0.0273877
0.0321315
0.0366682
0.0408394
0.0444937
0.0474931
0.0497265
0.0511083
0.0514957
0.0508494
-0.00101142
-0.00177325
-0.00145493
-0.000130502
0.00204413
0.00499726
0.00863626
0.0128413
0.0174759
0.0223909
0.0274277
0.0324211
0.0372034
0.0416079
0.0454734
0.0486516
0.0510204
0.0524827
0.0528661
0.0521039
-0.00317914
-0.00403963
-0.00371041
-0.0022795
7.41994e-05
0.00326887
0.00720228
0.0117445
0.0167494
0.0220584
0.0275036
0.0329099
0.0380982
0.0428886
0.0471049
0.0505813
0.0531784
0.0547815
0.05519
0.0543251
-0.00635876
-0.00732947
-0.00696716
-0.00537348
-0.00275509
0.0007918
0.00515065
0.0101769
0.0157108
0.021581
0.0276072
0.0336013
0.0393694
0.0447138
0.049437
0.0533485
0.056283
0.0581004
0.0585645
0.0575841
-0.0106629
-0.0117699
-0.011351
-0.00952777
-0.006545
-0.00251989
0.00241078
0.00808263
0.0143181
0.0209304
0.0277247
0.0344977
0.041038
0.047126
0.0525367
0.0570457
0.0604511
0.0625749
0.0631295
0.0620055
-0.0162493
-0.0175287
-0.0170247
-0.0148896
-0.011423
-0.00677288
-0.00110419
0.00539273
0.0125187
0.0200695
0.0278347
0.0355958
0.0431226
0.0501709
0.0564816
0.0617862
0.0658307
0.0683808
0.0690725
0.0677652
-0.0233316
-0.0248306
-0.0242028
-0.0216493
-0.0175502
-0.0120991
-0.00549988
0.00202401
0.0102482
0.0189502
0.027906
0.0368837
0.0456365
0.0538947
0.06136
0.0677076
0.0726113
0.0757517
0.0766477
0.0751044
-0.0321959
-0.033976
-0.0331662
-0.0300487
-0.0251248
-0.0186558
-0.0108989
-0.00211913
0.0074313
0.0175134
0.0278942
0.0383353
0.0485795
0.0583354
0.0672634
0.0749694
0.0810294
0.0849952
0.0862009
0.0843514
-0.0432287
-0.0453704
-0.044283
-0.0403914
-0.0343842
-0.0266226
-0.0174359
-0.00713971
0.00398498
0.0156883
0.027738
0.0399018
0.0519253
0.0635071
0.0742706
0.0837434
0.0913715
0.0965152
0.0982083
0.0959602
-0.0569687
-0.0595726
-0.0580387
-0.0530549
-0.0456043
-0.0361941
-0.0252473
-0.0131386
-0.000174611
0.0133949
0.0273552
0.0415006
0.0556034
0.0693753
0.0824207
0.0941903
0.10397
0.11084
0.113341
0.110583
-0.0742064
-0.0773795
-0.0750808
-0.0685023
-0.0590934
-0.0475637
-0.0344526
-0.0201971
-0.0051189
0.0105514
0.0266419
0.0430046
0.0594747
0.075819
0.0916644
0.106413
0.119177
0.128652
0.13257
0.12922
-0.0961987
-0.099974
-0.0962775
-0.0872868
-0.0751688
-0.0608906
-0.0451197
-0.028346
-0.0108829
0.00708943
0.0254775
0.0442325
0.063304
0.0825787
0.101786
0.12036
0.137293
0.15081
0.15737
0.153579
-0.125152
-0.12918
-0.122773
-0.110021
-0.0940986
-0.0762347
-0.057205
-0.037516
-0.0174256
0.00298321
0.0237415
0.0449495
0.0667334
0.0891889
0.112278
0.13565
0.158381
0.178309
0.190048
0.186921
-0.165255
-0.167852
-0.156011
-0.137299
-0.115995
-0.0934474
-0.0704567
-0.0474559
-0.0245628
-0.0016938
0.0213617
0.0449023
0.0692915
0.0949307
0.122191
0.151255
0.181794
0.211785
0.233731
0.235372
-0.225072
-0.220412
-0.197729
-0.169576
-0.14059
-0.111923
-0.0841939
-0.0575531
-0.0318171
-0.0066318
0.0184539
0.0439739
0.0705636
0.098996
0.130221
0.165369
0.205547
0.250253
0.291559
0.31026
-0.325567
-0.292897
-0.248036
-0.205232
-0.165622
-0.129402
-0.0964936
-0.0662939
-0.0380424
-0.0109893
0.0156013
0.0425017
0.0706059
0.101066
0.13552
0.176431
0.227313
0.292118
0.370945
0.441871
-0.523202
-0.386561
-0.292517
-0.230962
-0.181269
-0.138995
-0.102656
-0.0704959
-0.0410553
-0.0132339
0.0138967
0.0412496
0.0698821
0.10125
0.137699
0.183379
0.245628
0.338631
0.493304
0.711742
-0.882762
-0.472061
-0.293514
-0.222571
-0.173979
-0.133227
-0.0984917
-0.0677467
-0.0394064
-0.0124497
0.0139394
0.0405823
0.0684706
0.0990558
0.134928
0.181533
0.25133
0.375192
0.64055
1.1488
)
;

boundaryField
{
    movingWall
    {
        type            zeroGradient;
    }
    fixedWalls
    {
        type            zeroGradient;
    }
    frontAndBack
    {
        type            empty;
    }
}


// ************************************************************************* //
