/*--------------------------------*- C++ -*----------------------------------*\
  =========                 |
  \\      /  F ield         | OpenFOAM: The Open Source CFD Toolbox
   \\    /   O peration     | Website:  https://openfoam.org
    \\  /    A nd           | Version:  6
     \\/     M anipulation  |
\*---------------------------------------------------------------------------*/
FoamFile
{
    version     2.0;
    format      ascii;
    class       volVectorField;
    location    "0.015";
    object      U;
}
// * * * * * * * * * * * * * * * * * * * * * * * * * * * * * * * * * * * * * //

dimensions      [0 1 -1 0 0 0 0];

internalField   nonuniform List<vector> 
400
(
(-0.000211636 0.00020648 0)
(-0.0010862 0.000560676 0)
(-0.00254452 0.000668032 0)
(-0.00409447 0.000651613 0)
(-0.00553307 0.000590499 0)
(-0.00680062 0.000508856 0)
(-0.00786245 0.000413287 0)
(-0.00869054 0.000306961 0)
(-0.0092634 0.000192554 0)
(-0.00956582 7.27317e-05 0)
(-0.00958881 -4.97738e-05 0)
(-0.0093297 -0.000172119 0)
(-0.00879245 -0.000291311 0)
(-0.00798798 -0.000404182 0)
(-0.00693486 -0.000507335 0)
(-0.00565995 -0.000596686 0)
(-0.00419887 -0.000664533 0)
(-0.00261459 -0.000685411 0)
(-0.00111943 -0.000578555 0)
(-0.000218195 -0.000215661 0)
(-0.000576691 0.00108283 0)
(-0.00243441 0.00238882 0)
(-0.00518428 0.00277517 0)
(-0.00805106 0.00270957 0)
(-0.0107143 0.00246076 0)
(-0.0130655 0.00212095 0)
(-0.0150344 0.00172045 0)
(-0.0165667 0.00127451 0)
(-0.0176227 0.00079527 0)
(-0.0181751 0.000294245 0)
(-0.0182084 -0.00021707 0)
(-0.0177187 -0.000726889 0)
(-0.0167143 -0.00122282 0)
(-0.0152161 -0.00169159 0)
(-0.0132597 -0.0021185 0)
(-0.0108976 -0.00248497 0)
(-0.00820146 -0.00275649 0)
(-0.00528534 -0.00283558 0)
(-0.00248213 -0.00244698 0)
(-0.000586786 -0.00111159 0)
(-0.000728004 0.00259816 0)
(-0.00302092 0.0052039 0)
(-0.00634735 0.00594499 0)
(-0.00977669 0.00579737 0)
(-0.012949 0.00526704 0)
(-0.015745 0.00453835 0)
(-0.0180832 0.00367792 0)
(-0.0199003 0.00272045 0)
(-0.021151 0.00169289 0)
(-0.0218044 0.000620134 0)
(-0.021843 -0.000473451 0)
(-0.0212626 -0.00156313 0)
(-0.020072 -0.00262285 0)
(-0.0182948 -0.00362441 0)
(-0.0159714 -0.00453591 0)
(-0.0131627 -0.00531611 0)
(-0.00995185 -0.00588999 0)
(-0.00646504 -0.00606244 0)
(-0.00307723 -0.00531435 0)
(-0.000740971 -0.00265417 0)
(-0.000802481 0.00436493 0)
(-0.00334735 0.00843888 0)
(-0.00703929 0.00955232 0)
(-0.0108261 0.00929252 0)
(-0.014314 0.00843389 0)
(-0.0173789 0.00726067 0)
(-0.019936 0.00587883 0)
(-0.0219201 0.00434463 0)
(-0.0232853 0.00270134 0)
(-0.0240006 0.000988126 0)
(-0.0240485 -0.000757317 0)
(-0.0234236 -0.00249696 0)
(-0.0221333 -0.0041906 0)
(-0.0201996 -0.00579405 0)
(-0.0176619 -0.00725643 0)
(-0.0145821 -0.00851117 0)
(-0.0110465 -0.00943881 0)
(-0.00718765 -0.00973775 0)
(-0.00341842 -0.00861253 0)
(-0.000819184 -0.00445297 0)
(-0.000878539 0.00628454 0)
(-0.00368001 0.0119715 0)
(-0.00774918 0.0134808 0)
(-0.0119098 0.0130835 0)
(-0.0157261 0.0118562 0)
(-0.0190662 0.0101936 0)
(-0.0218434 0.00824455 0)
(-0.0239937 0.0060887 0)
(-0.0254732 0.00378605 0)
(-0.026253 0.0013895 0)
(-0.0263159 -0.00105107 0)
(-0.0256554 -0.00348577 0)
(-0.0242755 -0.00586137 0)
(-0.0221933 -0.00811809 0)
(-0.0194437 -0.0101852 0)
(-0.0160857 -0.0119683 0)
(-0.0122072 -0.0132983 0)
(-0.00795047 -0.0137544 0)
(-0.00377657 -0.0122281 0)
(-0.000901268 -0.00641504 0)
(-0.000980984 0.00840279 0)
(-0.00411376 0.0158823 0)
(-0.00866071 0.0178223 0)
(-0.0132928 0.0172569 0)
(-0.0175194 0.015607 0)
(-0.0211986 0.0133944 0)
(-0.0242432 0.0108178 0)
(-0.0265928 0.0079829 0)
(-0.0282089 0.00496687 0)
(-0.0290672 0.00183507 0)
(-0.0291523 -0.00135283 0)
(-0.0284556 -0.00453777 0)
(-0.0269756 -0.00765592 0)
(-0.0247212 -0.0106331 0)
(-0.0217178 -0.0133779 0)
(-0.0180177 -0.0157642 0)
(-0.0137079 -0.0175639 0)
(-0.00894355 -0.0182166 0)
(-0.00424974 -0.0162539 0)
(-0.00101287 -0.00859235 0)
(-0.00111939 0.010793 0)
(-0.00469001 0.0202944 0)
(-0.00985805 0.0227048 0)
(-0.0150945 0.0219259 0)
(-0.0198379 0.0197778 0)
(-0.0239355 0.0169323 0)
(-0.0273033 0.0136484 0)
(-0.0298897 0.0100615 0)
(-0.0316671 0.00626592 0)
(-0.0326195 0.00233713 0)
(-0.0327352 -0.00165956 0)
(-0.0320036 -0.0056607 0)
(-0.0304145 -0.00959617 0)
(-0.027963 -0.0133802 0)
(-0.0246581 -0.0169003 0)
(-0.0205378 -0.0199934 0)
(-0.015683 -0.0223592 0)
(-0.0102623 -0.0232681 0)
(-0.004885 -0.0208289 0)
(-0.00116489 -0.0110668 0)
(-0.00130303 0.013544 0)
(-0.00544677 0.0253602 0)
(-0.0114153 0.0282816 0)
(-0.0174148 0.0272192 0)
(-0.0227934 0.0244655 0)
(-0.02739 0.0208753 0)
(-0.0311316 0.0167812 0)
(-0.0339851 0.0123531 0)
(-0.035942 0.0077017 0)
(-0.0370014 0.00290783 0)
(-0.0371586 -0.00196431 0)
(-0.0364006 -0.00685468 0)
(-0.0347047 -0.0116943 0)
(-0.032044 -0.0163912 0)
(-0.0284 -0.0208136 0)
(-0.0237833 -0.0247552 0)
(-0.0182572 -0.0278254 0)
(-0.0120001 -0.0290837 0)
(-0.00573037 -0.0261289 0)
(-0.00136898 -0.0139397 0)
(-0.00154602 0.0167686 0)
(-0.00643795 0.0312722 0)
(-0.0134321 0.0347394 0)
(-0.0203814 0.0332829 0)
(-0.0265207 0.0297704 0)
(-0.0316889 0.0252848 0)
(-0.0358392 0.0202502 0)
(-0.0389729 0.0148758 0)
(-0.0411143 0.00928581 0)
(-0.0422871 0.00355837 0)
(-0.0424993 -0.00225418 0)
(-0.0417353 -0.00810738 0)
(-0.0399548 -0.0139456 0)
(-0.0370981 -0.0196809 0)
(-0.0331016 -0.0251669 0)
(-0.027927 -0.0301498 0)
(-0.0215976 -0.0341248 0)
(-0.0142887 -0.0358812 0)
(-0.00685711 -0.0323818 0)
(-0.00164337 -0.0173433 0)
(-0.00187178 0.020617 0)
(-0.00774885 0.0382807 0)
(-0.0160587 0.0423075 0)
(-0.0241775 0.0402805 0)
(-0.0312025 0.0357884 0)
(-0.0369928 0.0302045 0)
(-0.0415559 0.024067 0)
(-0.0449525 0.0176277 0)
(-0.0472603 0.0110168 0)
(-0.0485418 0.00429697 0)
(-0.0488248 -0.00250778 0)
(-0.0480927 -0.00938676 0)
(-0.0462814 -0.0163165 0)
(-0.0432837 -0.0232308 0)
(-0.0389665 -0.0299813 0)
(-0.0332078 -0.0362661 0)
(-0.0259498 -0.0414386 0)
(-0.0173328 -0.0439339 0)
(-0.00838173 -0.0398934 0)
(-0.00201933 -0.0214594 0)
(-0.00232143 0.0253018 0)
(-0.00952102 0.0467239 0)
(-0.0195306 0.0512718 0)
(-0.0290742 0.0483884 0)
(-0.0370922 0.0425955 0)
(-0.0435089 0.0356414 0)
(-0.0484336 0.0282032 0)
(-0.0520259 0.0205726 0)
(-0.0544452 0.0128712 0)
(-0.0558114 0.00512533 0)
(-0.0561826 -0.00269268 0)
(-0.0555439 -0.0106317 0)
(-0.0538018 -0.0187281 0)
(-0.0507847 -0.0269665 0)
(-0.0462571 -0.0352225 0)
(-0.0399606 -0.0431581 0)
(-0.0316847 -0.0499583 0)
(-0.0214633 -0.0535897 0)
(-0.0105053 -0.0490915 0)
(-0.002554 -0.0265549 0)
(-0.00297132 0.0311439 0)
(-0.0119998 0.0570783 0)
(-0.0242282 0.0619908 0)
(-0.0354787 0.0577827 0)
(-0.0445421 0.0502199 0)
(-0.0514996 0.041535 0)
(-0.0566417 0.0325629 0)
(-0.0602835 0.0236199 0)
(-0.0627032 0.0147903 0)
(-0.0641004 0.00603317 0)
(-0.0645761 -0.00276302 0)
(-0.0641226 -0.0117404 0)
(-0.0626142 -0.0210337 0)
(-0.0597991 -0.0307228 0)
(-0.0553012 -0.040756 0)
(-0.0486524 -0.0507985 0)
(-0.0393698 -0.0598583 0)
(-0.027232 -0.0652897 0)
(-0.0135937 -0.0606005 0)
(-0.00335967 -0.0330533 0)
(-0.00397219 0.0386654 0)
(-0.0156291 0.0700399 0)
(-0.0307778 0.0749072 0)
(-0.0440018 0.0686007 0)
(-0.0540302 0.0585868 0)
(-0.0612777 0.0477051 0)
(-0.0663418 0.036943 0)
(-0.0697683 0.0265965 0)
(-0.0719961 0.0166634 0)
(-0.0733263 0.00699015 0)
(-0.0739157 -0.00265857 0)
(-0.0737727 -0.0125585 0)
(-0.0727447 -0.0229905 0)
(-0.0704938 -0.0341934 0)
(-0.06647 -0.0462723 0)
(-0.0599056 -0.0589888 0)
(-0.0498621 -0.0712233 0)
(-0.0355731 -0.0795724 0)
(-0.0183424 -0.0753697 0)
(-0.00467177 -0.0416891 0)
(-0.00563469 0.0487801 0)
(-0.021232 0.0866484 0)
(-0.0402032 0.0905246 0)
(-0.0555154 0.0808462 0)
(-0.0661315 0.0674154 0)
(-0.0731242 0.053769 0)
(-0.0775773 0.0409744 0)
(-0.0803528 0.0292103 0)
(-0.0820841 0.0183053 0)
(-0.0831859 0.00793345 0)
(-0.0838778 -0.00230882 0)
(-0.0841969 -0.0128708 0)
(-0.0839842 -0.0242311 0)
(-0.0828362 -0.0368681 0)
(-0.0800259 -0.0511741 0)
(-0.0744091 -0.0671941 0)
(-0.0643466 -0.0838716 0)
(-0.0480127 -0.0969997 0)
(-0.0260794 -0.0948471 0)
(-0.00699426 -0.0538256 0)
(-0.00859217 0.0631697 0)
(-0.0302898 0.108429 0)
(-0.0540162 0.109275 0)
(-0.070982 0.0941758 0)
(-0.0811699 0.0760321 0)
(-0.0868457 0.0590108 0)
(-0.0897895 0.0440433 0)
(-0.0912391 0.0310042 0)
(-0.0920199 0.0194287 0)
(-0.0926401 0.00874643 0)
(-0.0933724 -0.00165213 0)
(-0.0942959 -0.0124159 0)
(-0.0952873 -0.0242582 0)
(-0.0959477 -0.0379794 0)
(-0.0954495 -0.0544326 0)
(-0.0922848 -0.074268 0)
(-0.083886 -0.0969565 0)
(-0.0665903 -0.117797 0)
(-0.0390831 -0.121041 0)
(-0.0113215 -0.0720051 0)
(-0.0139792 0.0850811 0)
(-0.0450041 0.137414 0)
(-0.0735139 0.131024 0)
(-0.0900721 0.107381 0)
(-0.0974674 0.0829929 0)
(-0.0998616 0.06215 0)
(-0.0998446 0.0451636 0)
(-0.0989684 0.0312881 0)
(-0.0981482 0.0195985 0)
(-0.0978984 0.00921388 0)
(-0.0984953 -0.000692561 0)
(-0.100061 -0.0109565 0)
(-0.102569 -0.0225187 0)
(-0.105762 -0.0365429 0)
(-0.108931 -0.0545166 0)
(-0.110453 -0.0781441 0)
(-0.106876 -0.108303 0)
(-0.0919311 -0.140988 0)
(-0.0598737 -0.156336 0)
(-0.0190844 -0.101127 0)
(-0.0230544 0.121008 0)
(-0.0664585 0.175121 0)
(-0.0952888 0.152979 0)
(-0.105063 0.116729 0)
(-0.104643 0.0850909 0)
(-0.100343 0.0608267 0)
(-0.0951765 0.0427333 0)
(-0.0906121 0.0290227 0)
(-0.0873401 0.0181605 0)
(-0.0856687 0.00894678 0)
(-0.0857589 0.000393614 0)
(-0.0877372 -0.00843617 0)
(-0.0917264 -0.0186157 0)
(-0.0977906 -0.031602 0)
(-0.105719 -0.049575 0)
(-0.114428 -0.0757303 0)
(-0.120471 -0.113678 0)
(-0.115405 -0.163003 0)
(-0.0860664 -0.202815 0)
(-0.0301577 -0.151024 0)
(-0.0333078 0.18051 0)
(-0.084443 0.215892 0)
(-0.0939478 0.16333 0)
(-0.0812344 0.112497 0)
(-0.064225 0.0760222 0)
(-0.048613 0.0512888 0)
(-0.0359035 0.0345904 0)
(-0.0264194 0.0229562 0)
(-0.0200027 0.0143481 0)
(-0.016406 0.00742126 0)
(-0.0154879 0.00120849 0)
(-0.017288 -0.00513991 0)
(-0.0220671 -0.0126075 0)
(-0.0303356 -0.0226652 0)
(-0.0428019 -0.0378823 0)
(-0.0600037 -0.0629 0)
(-0.0810566 -0.105238 0)
(-0.0996414 -0.172604 0)
(-0.0941763 -0.252142 0)
(-0.0337483 -0.229484 0)
(-0.0116865 0.24656 0)
(-0.0331168 0.224977 0)
(0.0242995 0.138162 0)
(0.0825288 0.0828694 0)
(0.122945 0.0509413 0)
(0.150708 0.0319915 0)
(0.170081 0.0205119 0)
(0.183331 0.0132472 0)
(0.191987 0.00828088 0)
(0.197048 0.00452567 0)
(0.199043 0.00131005 0)
(0.198092 -0.00189349 0)
(0.193904 -0.00568277 0)
(0.185634 -0.0110289 0)
(0.171595 -0.0199112 0)
(0.14877 -0.0367529 0)
(0.111768 -0.0711405 0)
(0.0542431 -0.13968 0)
(-0.00268034 -0.248779 0)
(0.0215065 -0.283481 0)
(0.284952 0.140408 0)
(0.357898 0.114484 0)
(0.479101 0.0642309 0)
(0.561327 0.0347672 0)
(0.604073 0.0193519 0)
(0.627747 0.0111188 0)
(0.642378 0.00664074 0)
(0.65174 0.00410818 0)
(0.657677 0.0025525 0)
(0.661215 0.00148134 0)
(0.662867 0.000635344 0)
(0.662797 -0.000153117 0)
(0.660858 -0.001047 0)
(0.656464 -0.00230314 0)
(0.648165 -0.00448355 0)
(0.632554 -0.00903575 0)
(0.600801 -0.019846 0)
(0.529255 -0.0464505 0)
(0.402836 -0.103164 0)
(0.316502 -0.142213 0)
)
;

boundaryField
{
    movingWall
    {
        type            fixedValue;
        value           uniform (1 0 0);
    }
    fixedWalls
    {
        type            noSlip;
    }
    frontAndBack
    {
        type            empty;
    }
}


// ************************************************************************* //
