/*--------------------------------*- C++ -*----------------------------------*\
  =========                 |
  \\      /  F ield         | OpenFOAM: The Open Source CFD Toolbox
   \\    /   O peration     | Website:  https://openfoam.org
    \\  /    A nd           | Version:  6
     \\/     M anipulation  |
\*---------------------------------------------------------------------------*/
FoamFile
{
    version     2.0;
    format      ascii;
    class       volVectorField;
    location    "0.075";
    object      U;
}
// * * * * * * * * * * * * * * * * * * * * * * * * * * * * * * * * * * * * * //

dimensions      [0 1 -1 0 0 0 0];

internalField   nonuniform List<vector> 
400
(
(7.98683e-05 -7.9703e-05 0)
(-0.000247643 0.000235994 0)
(-0.0014204 0.000514375 0)
(-0.00312072 0.000659877 0)
(-0.00502661 0.000697373 0)
(-0.00690975 0.000660251 0)
(-0.00861067 0.000573636 0)
(-0.0100188 0.000453651 0)
(-0.0110559 0.000309367 0)
(-0.0116635 0.000146002 0)
(-0.0117976 -3.20196e-05 0)
(-0.0114297 -0.000218589 0)
(-0.0105536 -0.000403866 0)
(-0.0091962 -0.000572533 0)
(-0.00743296 -0.000702525 0)
(-0.005403 -0.000765073 0)
(-0.00331984 -0.000727268 0)
(-0.00147394 -0.000557407 0)
(-0.000230385 -0.000244537 0)
(9.52969e-05 9.11856e-05 0)
(-0.000227031 0.000234597 0)
(-0.00166349 0.00165784 0)
(-0.00475397 0.0028221 0)
(-0.00883374 0.00345245 0)
(-0.0132923 0.00361116 0)
(-0.0176725 0.00341329 0)
(-0.021623 0.00296075 0)
(-0.0248844 0.00232802 0)
(-0.0272688 0.00156413 0)
(-0.0286391 0.000702803 0)
(-0.028899 -0.000225845 0)
(-0.0279948 -0.0011847 0)
(-0.0259277 -0.00212064 0)
(-0.0227752 -0.00295741 0)
(-0.0187186 -0.00359195 0)
(-0.0140691 -0.003898 0)
(-0.00927604 -0.00374246 0)
(-0.00491059 -0.00301756 0)
(-0.00166519 -0.00171604 0)
(-0.000208785 -0.000205777 0)
(-0.000525776 0.00141045 0)
(-0.00297916 0.00478303 0)
(-0.00769115 0.00733775 0)
(-0.0136275 0.00871632 0)
(-0.0199745 0.00903046 0)
(-0.0261482 0.00850585 0)
(-0.0316882 0.00736079 0)
(-0.0362462 0.00576641 0)
(-0.0395671 0.00384434 0)
(-0.0414651 0.00168441 0)
(-0.0418111 -0.000631591 0)
(-0.0405349 -0.00300675 0)
(-0.0376408 -0.00530873 0)
(-0.0332349 -0.00735435 0)
(-0.0275603 -0.00890362 0)
(-0.0210296 -0.00967207 0)
(-0.014231 -0.00937245 0)
(-0.00790236 -0.00779292 0)
(-0.00297512 -0.00493822 0)
(-0.000497257 -0.00136424 0)
(-0.000743739 0.0032491 0)
(-0.00402835 0.00923766 0)
(-0.0101264 0.0134866 0)
(-0.017629 0.0157099 0)
(-0.0255257 0.0161338 0)
(-0.0331363 0.0151305 0)
(-0.0399309 0.01306 0)
(-0.0455092 0.0102092 0)
(-0.0495778 0.00678774 0)
(-0.0519204 0.00295374 0)
(-0.0523828 -0.00114797 0)
(-0.0508745 -0.00534779 0)
(-0.0473877 -0.00941688 0)
(-0.0420305 -0.0130409 0)
(-0.0350729 -0.0158108 0)
(-0.0269901 -0.0172448 0)
(-0.0184763 -0.0168595 0)
(-0.0104225 -0.0142969 0)
(-0.00401449 -0.00952269 0)
(-0.000697988 -0.00316771 0)
(-0.000913251 0.00558567 0)
(-0.00491543 0.0147802 0)
(-0.0122702 0.0209902 0)
(-0.0212082 0.0241174 0)
(-0.0305179 0.0245853 0)
(-0.0394271 0.0229622 0)
(-0.0473528 0.0197782 0)
(-0.0538629 0.0154514 0)
(-0.0586417 0.0102857 0)
(-0.0614524 0.00450974 0)
(-0.0621152 -0.00166915 0)
(-0.060509 -0.00800785 0)
(-0.0565925 -0.0141751 0)
(-0.0504475 -0.0197099 0)
(-0.0423401 -0.0240047 0)
(-0.0327864 -0.0263359 0)
(-0.0225841 -0.0259657 0)
(-0.0128054 -0.0223243 0)
(-0.00493947 -0.0152697 0)
(-0.000853556 -0.00545475 0)
(-0.00107128 0.00836106 0)
(-0.00577615 0.021348 0)
(-0.0143917 0.0298097 0)
(-0.0247833 0.0339126 0)
(-0.0355247 0.0343613 0)
(-0.0457486 0.031982 0)
(-0.0548266 0.0275112 0)
(-0.0623071 0.0215152 0)
(-0.0678643 0.0143959 0)
(-0.0712461 0.00644629 0)
(-0.0722441 -0.0020735 0)
(-0.0706912 -0.0108563 0)
(-0.0664864 -0.0194708 0)
(-0.0596497 -0.0272967 0)
(-0.0504078 -0.0334921 0)
(-0.0392942 -0.0370274 0)
(-0.0272165 -0.036822 0)
(-0.0154751 -0.0319976 0)
(-0.00594973 -0.0222298 0)
(-0.00101237 -0.00820051 0)
(-0.00124823 0.0115936 0)
(-0.00673507 0.0290012 0)
(-0.0167485 0.0400337 0)
(-0.0287438 0.0451918 0)
(-0.0410544 0.0455542 0)
(-0.0527134 0.0422774 0)
(-0.0630554 0.0363499 0)
(-0.0716232 0.028506 0)
(-0.0780944 0.0192457 0)
(-0.0822096 0.00891368 0)
(-0.0837293 -0.0021981 0)
(-0.0824243 -0.0137404 0)
(-0.0781013 -0.0251962 0)
(-0.0706716 -0.0357792 0)
(-0.0602692 -0.0443714 0)
(-0.0474033 -0.0495493 0)
(-0.0330854 -0.049759 0)
(-0.0189009 -0.043667 0)
(-0.00725828 -0.0306636 0)
(-0.00122026 -0.0114941 0)
(-0.00147025 0.0153657 0)
(-0.00790415 0.037914 0)
(-0.0195727 0.0518676 0)
(-0.033429 0.0581519 0)
(-0.047526 0.0583359 0)
(-0.0607957 0.0539988 0)
(-0.0725511 0.0464365 0)
(-0.082352 0.0365742 0)
(-0.0899014 0.0250076 0)
(-0.0949486 0.0121113 0)
(-0.0972274 -0.00182458 0)
(-0.0964329 -0.0164484 0)
(-0.0922428 -0.0311904 0)
(-0.0843978 -0.0451074 0)
(-0.0728571 -0.056765 0)
(-0.0580248 -0.0642337 0)
(-0.0409745 -0.0652968 0)
(-0.0236251 -0.0579346 0)
(-0.00911484 -0.0410723 0)
(-0.00152959 -0.015543 0)
(-0.00176372 0.0198192 0)
(-0.00939315 0.0483691 0)
(-0.0230813 0.0656207 0)
(-0.0391333 0.0730652 0)
(-0.0552664 0.0729232 0)
(-0.0703194 0.067317 0)
(-0.0836134 0.0579201 0)
(-0.0947621 0.0458755 0)
(-0.103531 0.0318684 0)
(-0.109707 0.0162732 0)
(-0.113016 -0.000672288 0)
(-0.113074 -0.0186765 0)
(-0.109395 -0.0371802 0)
(-0.101474 -0.0551232 0)
(-0.0889783 -0.0707332 0)
(-0.0720648 -0.0814467 0)
(-0.0517557 -0.0841211 0)
(-0.030307 -0.0756813 0)
(-0.0118455 -0.0542508 0)
(-0.00201333 -0.0207025 0)
(-0.00216219 0.0251593 0)
(-0.0113275 0.0607539 0)
(-0.0274956 0.0816839 0)
(-0.0461134 0.0902365 0)
(-0.0644992 0.0895175 0)
(-0.0814244 0.0823548 0)
(-0.0962707 0.0708864 0)
(-0.108763 0.056504 0)
(-0.118786 0.0399727 0)
(-0.126214 0.0216268 0)
(-0.130804 0.00158528 0)
(-0.132111 -0.0200113 0)
(-0.129469 -0.0427198 0)
(-0.12205 -0.0654556 0)
(-0.109081 -0.0861371 0)
(-0.0902575 -0.101451 0)
(-0.066315 -0.106992 0)
(-0.039732 -0.0980602 0)
(-0.0158939 -0.071353 0)
(-0.002784 -0.0275332 0)
(-0.00271658 0.0316728 0)
(-0.0138712 0.0755656 0)
(-0.0330565 0.100498 0)
(-0.0545757 0.109936 0)
(-0.07529 0.108215 0)
(-0.0939669 0.0990847 0)
(-0.110135 0.0852509 0)
(-0.123715 0.0683858 0)
(-0.134786 0.0493212 0)
(-0.143388 0.0283038 0)
(-0.149372 0.00525306 0)
(-0.152288 -0.0199596 0)
(-0.151309 -0.047162 0)
(-0.145246 -0.0754159 0)
(-0.132734 -0.102454 0)
(-0.112722 -0.124172 0)
(-0.0852639 -0.134531 0)
(-0.052709 -0.126398 0)
(-0.0218403 -0.0939391 0)
(-0.00401748 -0.0368864 0)
(-0.00351172 0.0397651 0)
(-0.0172549 0.0934175 0)
(-0.0400235 0.122491 0)
(-0.0646101 0.132283 0)
(-0.0874026 0.128862 0)
(-0.107299 0.11717 0)
(-0.124111 0.100595 0)
(-0.138072 0.0811158 0)
(-0.149557 0.0596082 0)
(-0.158857 0.0361805 0)
(-0.166016 0.0104682 0)
(-0.170678 -0.0180607 0)
(-0.171948 -0.049704 0)
(-0.168313 -0.0839312 0)
(-0.157739 -0.11856 0)
(-0.138135 -0.148831 0)
(-0.108305 -0.166798 0)
(-0.0697479 -0.161881 0)
(-0.0303637 -0.123924 0)
(-0.00598172 -0.0500126 0)
(-0.0046969 0.0500283 0)
(-0.0218155 0.115031 0)
(-0.0486359 0.14795 0)
(-0.0760201 0.157032 0)
(-0.099994 0.150803 0)
(-0.119851 0.135715 0)
(-0.135901 0.115932 0)
(-0.148837 0.0937317 0)
(-0.159435 0.0699997 0)
(-0.168334 0.0446537 0)
(-0.175877 0.016972 0)
(-0.181942 -0.0141024 0)
(-0.185743 -0.0495471 0)
(-0.185628 -0.0895746 0)
(-0.178988 -0.132541 0)
(-0.162531 -0.17347 0)
(-0.13318 -0.202572 0)
(-0.0904035 -0.20486 0)
(-0.0420828 -0.163271 0)
(-0.00906539 -0.068669 0)
(-0.00654523 0.0633636 0)
(-0.0280527 0.141172 0)
(-0.0589898 0.176729 0)
(-0.0879497 0.183181 0)
(-0.111027 0.172489 0)
(-0.128412 0.152914 0)
(-0.141223 0.129404 0)
(-0.150782 0.104465 0)
(-0.158354 0.0789107 0)
(-0.164979 0.0524162 0)
(-0.17137 0.0238619 0)
(-0.177782 -0.00839755 0)
(-0.183786 -0.046173 0)
(-0.187945 -0.0907547 0)
(-0.187466 -0.14164 0)
(-0.178041 -0.194482 0)
(-0.154292 -0.238383 0)
(-0.112184 -0.253612 0)
(-0.0571423 -0.213174 0)
(-0.0137702 -0.095147 0)
(-0.00955585 0.0811953 0)
(-0.0366792 0.172436 0)
(-0.0706803 0.207666 0)
(-0.0980707 0.208301 0)
(-0.116173 0.190895 0)
(-0.126933 0.165625 0)
(-0.132681 0.138023 0)
(-0.135495 0.110594 0)
(-0.137122 0.0839316 0)
(-0.138948 0.0573981 0)
(-0.142019 0.0294872 0)
(-0.147019 -0.0019863 0)
(-0.154107 -0.0396617 0)
(-0.162542 -0.0860969 0)
(-0.170072 -0.142533 0)
(-0.172148 -0.206468 0)
(-0.161362 -0.267608 0)
(-0.128986 -0.30266 0)
(-0.0742366 -0.27245 0)
(-0.0205167 -0.132038 0)
(-0.0145374 0.105896 0)
(-0.048413 0.20864 0)
(-0.0816682 0.237425 0)
(-0.100713 0.227473 0)
(-0.10672 0.200819 0)
(-0.104618 0.169049 0)
(-0.0982383 0.137646 0)
(-0.090335 0.108645 0)
(-0.0828993 0.0821423 0)
(-0.0773894 0.0571075 0)
(-0.0749532 0.031723 0)
(-0.0765742 0.00346616 0)
(-0.083064 -0.0308688 0)
(-0.0947889 -0.0749529 0)
(-0.110956 -0.132067 0)
(-0.128229 -0.202826 0)
(-0.138692 -0.280254 0)
(-0.129175 -0.341176 0)
(-0.0885656 -0.335224 0)
(-0.0288252 -0.181765 0)
(-0.0222331 0.141931 0)
(-0.0623826 0.247074 0)
(-0.0845391 0.257803 0)
(-0.0823248 0.231372 0)
(-0.0655542 0.19404 0)
(-0.0429431 0.156716 0)
(-0.0193647 0.12348 0)
(0.00243104 0.0951429 0)
(0.0208611 0.0709727 0)
(0.0349525 0.0494982 0)
(0.0439095 0.0287571 0)
(0.0468011 0.00625124 0)
(0.0423779 -0.0212375 0)
(0.0290925 -0.0578252 0)
(0.00558303 -0.108384 0)
(-0.0277912 -0.177253 0)
(-0.0657057 -0.263861 0)
(-0.0938422 -0.351905 0)
(-0.0884921 -0.387669 0)
(-0.0349766 -0.245658 0)
(-0.0300593 0.196402 0)
(-0.0686616 0.276822 0)
(-0.0548289 0.250297 0)
(-0.0108078 0.204038 0)
(0.040177 0.159569 0)
(0.0884201 0.121919 0)
(0.130576 0.091849 0)
(0.165569 0.0683343 0)
(0.193331 0.0497337 0)
(0.214111 0.0342975 0)
(0.227979 0.0202253 0)
(0.234484 0.00550605 0)
(0.232373 -0.0123708 0)
(0.219335 -0.0368444 0)
(0.191952 -0.07285 0)
(0.146494 -0.127212 0)
(0.0816589 -0.207176 0)
(0.00492656 -0.311589 0)
(-0.0505808 -0.400846 0)
(-0.0260004 -0.314616 0)
(-0.00719242 0.253165 0)
(-0.0110371 0.26198 0)
(0.0815708 0.189688 0)
(0.184058 0.134244 0)
(0.267984 0.095161 0)
(0.333687 0.0671426 0)
(0.38455 0.0472783 0)
(0.423237 0.0332551 0)
(0.452019 0.0231362 0)
(0.47267 0.0154014 0)
(0.48624 0.00881178 0)
(0.492914 0.00220654 0)
(0.491821 -0.00573389 0)
(0.480695 -0.016836 0)
(0.455317 -0.0340958 0)
(0.408926 -0.0631048 0)
(0.33161 -0.114542 0)
(0.212223 -0.203555 0)
(0.077196 -0.323714 0)
(0.0414038 -0.329569 0)
(0.285131 0.140385 0)
(0.365561 0.124375 0)
(0.509298 0.0786859 0)
(0.620684 0.0488236 0)
(0.690255 0.0307194 0)
(0.734958 0.0193634 0)
(0.765154 0.0122264 0)
(0.785802 0.00776 0)
(0.799847 0.00491026 0)
(0.809171 0.00297813 0)
(0.814802 0.00149064 0)
(0.817046 8.59353e-05 0)
(0.815519 -0.00158282 0)
(0.808979 -0.00395929 0)
(0.794854 -0.00779848 0)
(0.768108 -0.014749 0)
(0.718116 -0.0290044 0)
(0.618162 -0.0603356 0)
(0.450549 -0.120562 0)
(0.328813 -0.1528 0)
)
;

boundaryField
{
    movingWall
    {
        type            fixedValue;
        value           uniform (1 0 0);
    }
    fixedWalls
    {
        type            noSlip;
    }
    frontAndBack
    {
        type            empty;
    }
}


// ************************************************************************* //
