/*--------------------------------*- C++ -*----------------------------------*\
  =========                 |
  \\      /  F ield         | OpenFOAM: The Open Source CFD Toolbox
   \\    /   O peration     | Website:  https://openfoam.org
    \\  /    A nd           | Version:  6
     \\/     M anipulation  |
\*---------------------------------------------------------------------------*/
FoamFile
{
    version     2.0;
    format      ascii;
    class       volScalarField;
    location    "0.16";
    object      p;
}
// * * * * * * * * * * * * * * * * * * * * * * * * * * * * * * * * * * * * * //

dimensions      [0 2 -2 0 0 0 0];

internalField   nonuniform List<scalar> 
400
(
-1.63883e-08
-0.000279862
-0.00050745
-0.000555435
-0.000389421
-5.81412e-06
0.000585032
0.00136576
0.00231346
0.00339715
0.00457421
0.00578765
0.00696581
0.00802571
0.00888157
0.00945931
0.00971656
0.00966324
0.00937884
0.00905262
0.00027926
-9.56082e-06
-0.000173625
-0.000165532
1.75919e-05
0.000381688
0.000924296
0.00163487
0.00249573
0.00348007
0.00454936
0.00565169
0.00672216
0.00768678
0.0084707
0.00901175
0.00927834
0.00928201
0.00906594
0.0087328
0.000518087
0.000134368
-4.29488e-05
-2.36e-05
0.000159447
0.000507136
0.00101933
0.00168963
0.00250522
0.00344402
0.00447165
0.00553942
0.00658445
0.0075331
0.00830916
0.00884773
0.00911446
0.00911517
0.00886307
0.0084171
0.000575178
8.0701e-05
-0.000141149
-0.000134734
3.81304e-05
0.000372579
0.000869048
0.00152432
0.00233031
0.00326989
0.00431259
0.00541145
0.0065018
0.00750377
0.0083304
0.0089032
0.00917569
0.00914508
0.00880791
0.00821691
0.000382753
-0.000212617
-0.000482907
-0.000495781
-0.000335252
-1.03044e-05
0.000480756
0.00113849
0.00196027
0.00293471
0.0040358
0.00521794
0.00641266
0.00752938
0.00846305
0.00911249
0.00941074
0.00934334
0.00889924
0.00814814
-0.000104834
-0.000795189
-0.00111436
-0.00114812
-0.000999221
-0.000679501
-0.000185062
0.000489537
0.00134849
0.00238782
0.00358775
0.00490526
0.00626766
0.00757017
0.00868202
0.00946767
0.00982718
0.00972633
0.00914789
0.00819678
-0.000925112
-0.00171334
-0.00208351
-0.00213899
-0.00200136
-0.00168509
-0.00118331
-0.000484351
0.000424908
0.00155084
0.00288355
0.00438642
0.0059851
0.00755942
0.00894504
0.00995633
0.0104396
0.0103219
0.00956859
0.00833533
-0.00211699
-0.0030142
-0.00344011
-0.00351915
-0.00339534
-0.00308675
-0.00258319
-0.00186527
-0.000908303
0.000308725
0.00179199
0.0035191
0.00542207
0.00736981
0.00915929
0.0105348
0.0112553
0.0111699
0.0101899
0.0085324
-0.00372774
-0.00475243
-0.00524128
-0.0053473
-0.00524423
-0.00495625
-0.00447022
-0.00375807
-0.00278086
-0.00149794
0.000121465
0.00208232
0.00434002
0.00676908
0.00913335
0.0110876
0.0122525
0.012324
0.0110729
0.00876736
-0.00581777
-0.00699517
-0.00755469
-0.00769068
-0.0076187
-0.00737356
-0.00694083
-0.00628406
-0.00534892
-0.00407126
-0.00238655
-0.000244699
0.00236236
0.00535322
0.00849152
0.0113407
0.0133186
0.0138354
0.0123358
0.00906363
-0.00846626
-0.00982781
-0.010461
-0.010623
-0.0105907
-0.0104164
-0.0100876
-0.00956219
-0.00877304
-0.00763316
-0.00603926
-0.00387842
-0.00104967
0.00247898
0.00655764
0.0107152
0.014119
0.0156855
0.0141743
0.00956482
-0.0117822
-0.0133636
-0.0140566
-0.0142198
-0.0142213
-0.0141407
-0.0139714
-0.0136713
-0.0131684
-0.0123625
-0.0111181
-0.00925253
-0.00653244
-0.00271582
0.00229681
0.00818009
0.0139078
0.017648
0.0168594
0.0107007
-0.0159285
-0.0177614
-0.0184575
-0.0185482
-0.0185405
-0.0185498
-0.0185777
-0.0185885
-0.018519
-0.0182762
-0.0177161
-0.0166025
-0.014553
-0.0110206
-0.00543322
0.0023777
0.0114905
0.0191784
0.0207489
0.0135433
-0.021177
-0.0232597
-0.0238013
-0.0236474
-0.0235128
-0.0235481
-0.0237557
-0.024109
-0.0245676
-0.0250712
-0.0255038
-0.0256156
-0.0248965
-0.0224497
-0.0170312
-0.00753855
0.0058141
0.0196729
0.0264889
0.0204221
-0.0280323
-0.0302359
-0.0302367
-0.0294821
-0.0289788
-0.0288768
-0.0291505
-0.0297733
-0.0307313
-0.032013
-0.0335581
-0.035141
-0.0361675
-0.035418
-0.0309215
-0.0203498
-0.00251937
0.019496
0.0355793
0.0354534
-0.0375104
-0.0392984
-0.037857
-0.0358356
-0.0345511
-0.0340265
-0.0341429
-0.0348437
-0.0361242
-0.0380086
-0.0404799
-0.0433283
-0.0458838
-0.0466556
-0.0430553
-0.0316135
-0.0094632
0.0218016
0.0514131
0.0644854
-0.0518364
-0.051404
-0.0465539
-0.0421631
-0.0395008
-0.0381686
-0.0378449
-0.038386
-0.0397469
-0.0419307
-0.0448937
-0.0483582
-0.0515012
-0.0525376
-0.048371
-0.034707
-0.0073286
0.0342949
0.0815708
0.116648
-0.0768995
-0.0678564
-0.0556826
-0.0473378
-0.0425454
-0.0400262
-0.0390888
-0.0393828
-0.0407221
-0.0429955
-0.0460292
-0.0493571
-0.0518744
-0.0513902
-0.0442387
-0.0253223
0.0107906
0.0671364
0.140309
0.212325
-0.131166
-0.0883305
-0.0600986
-0.0464715
-0.0397689
-0.0365426
-0.0355787
-0.0361964
-0.0379526
-0.0405601
-0.0436806
-0.0466323
-0.0480146
-0.045237
-0.0340347
-0.00816539
0.04026
0.119547
0.237527
0.384054
-0.256159
-0.10386
-0.0444636
-0.0300121
-0.0256845
-0.0243793
-0.0252847
-0.0276697
-0.0309033
-0.0346186
-0.0384399
-0.0416261
-0.0426922
-0.0389512
-0.0259622
0.00326727
0.0596903
0.161788
0.33771
0.608204
)
;

boundaryField
{
    movingWall
    {
        type            zeroGradient;
    }
    fixedWalls
    {
        type            zeroGradient;
    }
    frontAndBack
    {
        type            empty;
    }
}


// ************************************************************************* //
