/*--------------------------------*- C++ -*----------------------------------*\
  =========                 |
  \\      /  F ield         | OpenFOAM: The Open Source CFD Toolbox
   \\    /   O peration     | Website:  https://openfoam.org
    \\  /    A nd           | Version:  6
     \\/     M anipulation  |
\*---------------------------------------------------------------------------*/
FoamFile
{
    version     2.0;
    format      ascii;
    class       surfaceScalarField;
    location    "0.01";
    object      phi;
}
// * * * * * * * * * * * * * * * * * * * * * * * * * * * * * * * * * * * * * //

dimensions      [0 3 -1 0 0 0 0];

internalField   nonuniform List<scalar> 
760
(
-3.71312e-08
3.71312e-08
-8.67378e-08
4.96066e-08
-1.35453e-07
4.87155e-08
-1.80555e-07
4.51012e-08
-2.20784e-07
4.02299e-08
-2.55137e-07
3.43521e-08
-2.8278e-07
2.76438e-08
-3.03067e-07
2.02862e-08
-3.15528e-07
1.24613e-08
-3.19876e-07
4.34786e-09
-3.15998e-07
-3.87762e-09
-3.0396e-07
-1.20379e-08
-2.84008e-07
-1.99521e-08
-2.56575e-07
-2.74332e-08
-2.22287e-07
-3.42881e-08
-1.81966e-07
-4.0321e-08
-1.36626e-07
-4.53394e-08
-8.75517e-08
-4.90747e-08
-3.7493e-08
-5.00587e-08
-3.7493e-08
-5.15601e-08
8.86912e-08
-1.17774e-07
1.15821e-07
-1.82665e-07
1.13606e-07
-2.42785e-07
1.05222e-07
-2.96391e-07
9.38362e-08
-3.42128e-07
8.00888e-08
-3.78899e-07
6.44144e-08
-4.05855e-07
4.72422e-08
-4.2239e-07
2.89967e-08
-4.28134e-07
1.00916e-08
-4.22944e-07
-9.06723e-09
-4.06908e-07
-2.80744e-08
-3.80345e-07
-4.65151e-08
-3.4382e-07
-6.3958e-08
-2.98154e-07
-7.99539e-08
-2.44433e-07
-9.40423e-08
-1.8402e-07
-1.05753e-07
-1.18688e-07
-1.14406e-07
-5.19666e-08
-1.1678e-07
-8.94596e-08
-5.5402e-08
1.44093e-07
-1.26571e-07
1.8699e-07
-1.9616e-07
1.83195e-07
-2.60524e-07
1.69586e-07
-3.17828e-07
1.5114e-07
-3.66648e-07
1.28909e-07
-4.05846e-07
1.03613e-07
-4.34555e-07
7.59509e-08
-4.52161e-07
4.66034e-08
-4.58293e-07
1.62234e-08
-4.52806e-07
-1.45548e-08
-4.3578e-07
-4.50997e-08
-4.07532e-07
-7.47635e-08
-3.68625e-07
-1.02865e-07
-3.19892e-07
-1.28686e-07
-2.6246e-07
-1.51475e-07
-1.97761e-07
-1.70452e-07
-1.27667e-07
-1.845e-07
-5.59112e-08
-1.88537e-07
-1.45371e-07
-5.94567e-08
2.0355e-07
-1.35913e-07
2.63447e-07
-2.10552e-07
2.57834e-07
-2.79426e-07
2.38459e-07
-3.40592e-07
2.12306e-07
-3.92575e-07
1.80891e-07
-4.34223e-07
1.45261e-07
-4.64682e-07
1.0641e-07
-4.8336e-07
6.52819e-08
-4.89902e-07
2.2765e-08
-4.84165e-07
-2.02923e-08
-4.66214e-07
-6.30505e-08
-4.36335e-07
-1.04642e-07
-3.95059e-07
-1.44142e-07
-3.43196e-07
-1.80548e-07
-2.81878e-07
-2.12793e-07
-2.12588e-07
-2.39742e-07
-1.37314e-07
-2.59773e-07
-6.01046e-08
-2.65746e-07
-2.05475e-07
-6.51409e-08
2.68691e-07
-1.48868e-07
3.47173e-07
-2.30429e-07
3.39394e-07
-3.05449e-07
3.1348e-07
-3.71829e-07
2.78686e-07
-4.28033e-07
2.37096e-07
-4.72918e-07
1.90146e-07
-5.0567e-07
1.39162e-07
-5.25749e-07
8.53607e-08
-5.32834e-07
2.98502e-08
-5.26791e-07
-2.63354e-08
-5.07659e-07
-8.21823e-08
-4.75669e-07
-1.36633e-07
-4.31281e-07
-1.8853e-07
-3.75248e-07
-2.36581e-07
-3.08683e-07
-2.79358e-07
-2.33125e-07
-3.153e-07
-1.50729e-07
-3.42169e-07
-6.60011e-08
-3.50474e-07
-2.71476e-07
-7.27887e-08
3.4148e-07
-1.66215e-07
4.40599e-07
-2.56934e-07
4.30114e-07
-3.39998e-07
3.96543e-07
-4.13106e-07
3.51795e-07
-4.74679e-07
2.98669e-07
-5.23621e-07
2.39087e-07
-5.59214e-07
1.74755e-07
-5.81019e-07
1.07165e-07
-5.88784e-07
3.76158e-08
-5.82394e-07
-3.27261e-08
-5.61845e-07
-1.02731e-07
-5.27272e-07
-1.71205e-07
-4.79012e-07
-2.3679e-07
-4.17694e-07
-2.97898e-07
-3.44362e-07
-3.5269e-07
-2.60592e-07
-3.9907e-07
-1.6875e-07
-4.34011e-07
-7.39611e-08
-4.45264e-07
-3.45438e-07
-8.27656e-08
4.24245e-07
-1.88757e-07
5.46591e-07
-2.91203e-07
5.3256e-07
-3.84397e-07
4.89736e-07
-4.65811e-07
4.33209e-07
-5.33866e-07
3.66724e-07
-5.87603e-07
2.92825e-07
-6.26497e-07
2.1365e-07
-6.50291e-07
1.30959e-07
-6.58858e-07
4.61829e-08
-6.52117e-07
-3.94671e-08
-6.30002e-07
-1.24847e-07
-5.92492e-07
-2.08715e-07
-5.39704e-07
-2.89578e-07
-4.72037e-07
-3.65565e-07
-3.90365e-07
-4.34363e-07
-2.96242e-07
-4.93193e-07
-1.92268e-07
-5.37984e-07
-8.43927e-08
-5.53139e-07
-4.2983e-07
-9.56096e-08
5.19855e-07
-2.17642e-07
6.68623e-07
-3.34814e-07
6.49732e-07
-4.40429e-07
5.95352e-07
-5.31737e-07
5.24517e-07
-6.07271e-07
4.42258e-07
-6.66366e-07
3.51919e-07
-7.08849e-07
2.56132e-07
-7.34776e-07
1.56887e-07
-7.44233e-07
5.56392e-08
-7.37201e-07
-4.64992e-08
-7.13519e-07
-1.48528e-07
-6.72922e-07
-2.49312e-07
-6.15166e-07
-3.47335e-07
-5.40239e-07
-4.40491e-07
-4.48661e-07
-5.25941e-07
-3.41829e-07
-6.00025e-07
-2.22568e-07
-6.57246e-07
-9.79006e-08
-6.77806e-07
-5.27731e-07
-1.1213e-07
6.31985e-07
-2.54559e-07
8.11052e-07
-3.90023e-07
7.85196e-07
-5.10559e-07
7.15887e-07
-6.13261e-07
6.27219e-07
-6.97002e-07
5.25999e-07
-7.61685e-07
4.16601e-07
-8.07745e-07
3.02193e-07
-8.35753e-07
1.84895e-07
-8.46125e-07
6.60109e-08
-8.38953e-07
-5.36712e-08
-8.13942e-07
-1.73539e-07
-7.70455e-07
-2.92799e-07
-7.07675e-07
-4.10115e-07
-6.24901e-07
-5.23265e-07
-5.21981e-07
-6.28861e-07
-3.99883e-07
-7.22124e-07
-2.61555e-07
-7.95574e-07
-1.15404e-07
-8.23956e-07
-6.43135e-07
-1.33579e-07
7.65564e-07
-3.02051e-07
9.79524e-07
-4.60116e-07
9.43261e-07
-5.98214e-07
8.53986e-07
-7.13517e-07
7.42522e-07
-8.05666e-07
6.18148e-07
-8.75591e-07
4.86527e-07
-9.24726e-07
3.51328e-07
-9.54437e-07
2.14605e-07
-9.65645e-07
7.72195e-08
-9.58616e-07
-6.07004e-08
-9.32873e-07
-1.99282e-07
-8.87245e-07
-3.38428e-07
-8.20048e-07
-4.77312e-07
-7.29462e-07
-6.13851e-07
-6.14143e-07
-7.44181e-07
-4.74109e-07
-8.62158e-07
-3.12131e-07
-9.57552e-07
-1.38341e-07
-9.97746e-07
-7.81476e-07
-1.61962e-07
9.27526e-07
-3.64071e-07
1.18163e-06
-5.49967e-07
1.12916e-06
-7.08218e-07
1.01224e-06
-8.36638e-07
8.70942e-07
-9.36434e-07
7.17944e-07
-1.0103e-06
5.60392e-07
-1.06123e-06
4.02258e-07
-1.09177e-06
2.45146e-07
-1.10357e-06
8.90183e-08
-1.09714e-06
-6.71238e-08
-1.0718e-06
-2.24631e-07
-1.02562e-06
-3.84605e-07
-9.55683e-07
-5.47247e-07
-8.58445e-07
-7.11089e-07
-7.30527e-07
-8.72099e-07
-5.70044e-07
-1.02264e-06
-3.78849e-07
-1.14875e-06
-1.69052e-07
-1.20754e-06
-9.50528e-07
-2.00649e-07
1.12818e-06
-4.46962e-07
1.42795e-06
-6.66974e-07
1.34917e-06
-8.47412e-07
1.19268e-06
-9.8804e-07
1.01157e-06
-1.09305e-06
8.22957e-07
-1.16804e-06
6.35376e-07
-1.21832e-06
4.52545e-07
-1.2481e-06
2.74922e-07
-1.25999e-06
1.00907e-07
-1.25486e-06
-7.22492e-08
-1.23176e-06
-2.47732e-07
-1.18786e-06
-4.28506e-07
-1.11855e-06
-6.1656e-07
-1.01775e-06
-8.11891e-07
-8.78774e-07
-1.01107e-06
-6.96139e-07
-1.20528e-06
-4.6911e-07
-1.37577e-06
-2.1154e-07
-1.46511e-06
-1.16207e-06
-2.55612e-07
1.38379e-06
-5.61301e-07
1.73364e-06
-8.22586e-07
1.61045e-06
-1.02555e-06
1.39563e-06
-1.17472e-06
1.16074e-06
-1.27974e-06
9.27976e-07
-1.35073e-06
7.06366e-07
-1.39629e-06
4.98105e-07
-1.42272e-06
3.01356e-07
-1.43385e-06
1.12031e-07
-1.43098e-06
-7.51164e-08
-1.41292e-06
-2.65792e-07
-1.37581e-06
-4.65613e-07
-1.31298e-06
-6.79397e-07
-1.21488e-06
-9.09987e-07
-1.06974e-06
-1.15622e-06
-8.65552e-07
-1.40946e-06
-5.95423e-07
-1.6459e-06
-2.73085e-07
-1.78745e-06
-1.43515e-06
-3.3814e-07
1.72193e-06
-7.25419e-07
2.12091e-06
-1.03482e-06
1.91985e-06
-1.25641e-06
1.61723e-06
-1.40538e-06
1.30971e-06
-1.50077e-06
1.02336e-06
-1.55936e-06
7.64963e-07
-1.59395e-06
5.32694e-07
-1.61323e-06
3.2064e-07
-1.62227e-06
1.21071e-07
-1.62289e-06
-7.45036e-08
-1.61374e-06
-2.74938e-07
-1.59008e-06
-4.89276e-07
-1.54306e-06
-7.26416e-07
-1.45894e-06
-9.94107e-07
-1.31863e-06
-1.29653e-06
-1.09903e-06
-1.62906e-06
-7.79779e-07
-1.96515e-06
-3.67888e-07
-2.19934e-06
-1.80304e-06
-4.71136e-07
2.19306e-06
-9.72299e-07
2.62208e-06
-1.33211e-06
2.27966e-06
-1.55891e-06
1.84403e-06
-1.68991e-06
1.44071e-06
-1.75935e-06
1.09281e-06
-1.79283e-06
7.9844e-07
-1.80765e-06
5.47518e-07
-1.81463e-06
3.27619e-07
-1.81975e-06
1.26185e-07
-1.82523e-06
-6.90253e-08
-1.82988e-06
-2.70284e-07
-1.82863e-06
-4.90522e-07
-1.81117e-06
-7.4388e-07
-1.75965e-06
-1.04563e-06
-1.64583e-06
-1.41035e-06
-1.42923e-06
-1.84566e-06
-1.06218e-06
-2.3322e-06
-5.25754e-07
-2.73576e-06
-2.3288e-06
-7.03897e-07
2.89696e-06
-1.36234e-06
3.28052e-06
-1.75781e-06
2.67513e-06
-1.95601e-06
2.04223e-06
-2.03614e-06
1.52084e-06
-2.05403e-06
1.1107e-06
-2.04464e-06
7.89057e-07
-2.02847e-06
5.31342e-07
-2.01687e-06
3.16023e-07
-2.01571e-06
1.25029e-07
-2.02731e-06
-5.74251e-08
-2.0511e-06
-2.46499e-07
-2.08301e-06
-4.58615e-07
-2.11337e-06
-7.13514e-07
-2.12267e-06
-1.03633e-06
-2.07427e-06
-1.45875e-06
-1.90431e-06
-2.01561e-06
-1.51472e-06
-2.72179e-06
-8.10782e-07
-3.4397e-06
-3.13958e-06
-1.1433e-06
4.04026e-06
-1.99658e-06
4.13381e-06
-2.36021e-06
3.03875e-06
-2.45383e-06
2.13585e-06
-2.42591e-06
1.49292e-06
-2.35502e-06
1.0398e-06
-2.28039e-06
7.14431e-07
-2.2205e-06
4.71448e-07
-2.1836e-06
2.79123e-07
-2.17334e-06
1.14769e-07
-2.19141e-06
-3.93513e-08
-2.23847e-06
-1.99444e-07
-2.31362e-06
-3.8346e-07
-2.41211e-06
-6.15022e-07
-2.51947e-06
-9.28972e-07
-2.59884e-06
-1.37938e-06
-2.56557e-06
-2.04889e-06
-2.24273e-06
-3.04463e-06
-1.34675e-06
-4.33568e-06
-4.48633e-06
-1.98151e-06
6.02176e-06
-2.90917e-06
5.06147e-06
-3.00286e-06
3.13244e-06
-2.82404e-06
1.95703e-06
-2.59274e-06
1.26162e-06
-2.38316e-06
8.30225e-07
-2.21826e-06
5.49531e-07
-2.10218e-06
3.55362e-07
-2.03337e-06
2.10316e-07
-2.00996e-06
9.13649e-08
-2.03174e-06
-1.7573e-08
-2.10086e-06
-1.30327e-07
-2.22189e-06
-2.62431e-07
-2.40073e-06
-4.36185e-07
-2.64014e-06
-6.89557e-07
-2.92557e-06
-1.09395e-06
-3.18495e-06
-1.78951e-06
-3.17711e-06
-3.05247e-06
-2.25603e-06
-5.25676e-06
-6.74236e-06
-2.77477e-06
8.79653e-06
-2.50175e-06
4.78846e-06
-1.56613e-06
2.19681e-06
-7.98837e-07
1.18974e-06
-2.43878e-07
7.06662e-07
1.48017e-07
4.3833e-07
4.1779e-07
2.79758e-07
5.95167e-07
1.77985e-07
6.99545e-07
1.05938e-07
7.41768e-07
4.91416e-08
7.25684e-07
-1.48813e-09
6.48636e-07
-5.32794e-08
5.00694e-07
-1.14489e-07
2.6251e-07
-1.98001e-07
-9.78248e-08
-3.29222e-07
-6.25073e-07
-5.66706e-07
-1.35386e-06
-1.06073e-06
-2.19351e-06
-2.21282e-06
-2.42003e-06
-5.03024e-06
-9.1624e-06
8.79653e-06
1.3585e-05
1.57818e-05
1.69715e-05
1.76782e-05
1.81165e-05
1.83963e-05
1.85743e-05
1.86802e-05
1.87294e-05
1.87279e-05
1.86746e-05
1.85601e-05
1.83621e-05
1.80329e-05
1.74662e-05
1.64054e-05
1.41926e-05
9.1624e-06
)
;

boundaryField
{
    movingWall
    {
        type            calculated;
        value           uniform 0;
    }
    fixedWalls
    {
        type            calculated;
        value           uniform 0;
    }
    frontAndBack
    {
        type            empty;
        value           nonuniform 0();
    }
}


// ************************************************************************* //
