/*--------------------------------*- C++ -*----------------------------------*\
  =========                 |
  \\      /  F ield         | OpenFOAM: The Open Source CFD Toolbox
   \\    /   O peration     | Website:  https://openfoam.org
    \\  /    A nd           | Version:  6
     \\/     M anipulation  |
\*---------------------------------------------------------------------------*/
FoamFile
{
    version     2.0;
    format      ascii;
    class       surfaceScalarField;
    location    "0.05";
    object      phi;
}
// * * * * * * * * * * * * * * * * * * * * * * * * * * * * * * * * * * * * * //

dimensions      [0 3 -1 0 0 0 0];

internalField   nonuniform List<scalar> 
760
(
1.48142e-08
-1.48365e-08
-2.06874e-08
3.55017e-08
-1.12567e-07
9.18801e-08
-2.44648e-07
1.3208e-07
-3.9681e-07
1.52163e-07
-5.49652e-07
1.52842e-07
-6.86379e-07
1.36728e-07
-7.93685e-07
1.07306e-07
-8.62021e-07
6.83373e-08
-8.85634e-07
2.36127e-08
-8.62537e-07
-2.30969e-08
-7.94528e-07
-6.80092e-08
-6.87245e-07
-1.07284e-07
-5.50232e-07
-1.37013e-07
-3.9692e-07
-1.53312e-07
-2.44307e-07
-1.52612e-07
-1.12e-07
-1.32307e-07
-2.02089e-08
-9.17914e-08
1.50041e-08
-3.5214e-08
1.50032e-08
-3.28251e-08
1.79886e-08
-1.77366e-07
1.80043e-07
-4.30758e-07
3.45273e-07
-7.62896e-07
4.64218e-07
-1.1336e-06
5.22872e-07
-1.50153e-06
5.2077e-07
-1.82925e-06
4.64445e-07
-2.0861e-06
3.64151e-07
-2.24957e-06
2.31817e-07
-2.30596e-06
7.99995e-08
-2.25053e-06
-7.85263e-08
-2.08767e-06
-2.30874e-07
-1.83087e-06
-3.64076e-07
-1.50264e-06
-4.65246e-07
-1.13385e-06
-5.22107e-07
-7.62289e-07
-5.24172e-07
-4.29687e-07
-4.64907e-07
-1.76404e-07
-3.45074e-07
-3.23925e-08
-1.79225e-07
-1.73899e-08
-9.02908e-08
1.08279e-07
-3.53034e-07
4.42786e-07
-7.60735e-07
7.52974e-07
-1.2673e-06
9.70787e-07
-1.81757e-06
1.07314e-06
-2.35567e-06
1.05887e-06
-2.83093e-06
9.39705e-07
-3.2016e-06
7.34822e-07
-3.43689e-06
4.67105e-07
-3.51794e-06
1.61051e-07
-3.43827e-06
-1.58202e-07
-3.2039e-06
-4.65239e-07
-2.8334e-06
-7.34574e-07
-2.35753e-06
-9.41119e-07
-1.81829e-06
-1.06135e-06
-1.26681e-06
-1.07565e-06
-7.59486e-07
-9.72234e-07
-3.51782e-07
-7.52777e-07
-8.96785e-08
-4.41327e-07
-1.07068e-07
-1.42814e-07
2.51093e-07
-5.21302e-07
8.21273e-07
-1.07889e-06
1.31056e-06
-1.74926e-06
1.64116e-06
-2.46187e-06
1.78575e-06
-3.14865e-06
1.74565e-06
-3.74931e-06
1.54036e-06
-4.21479e-06
1.2003e-06
-4.50916e-06
7.61482e-07
-4.61053e-06
2.62419e-07
-4.51134e-06
-2.57396e-07
-4.21853e-06
-7.58049e-07
-3.75358e-06
-1.19952e-06
-3.15232e-06
-1.54238e-06
-2.46408e-06
-1.7496e-06
-1.74972e-06
-1.79001e-06
-1.07801e-06
-1.64394e-06
-5.20017e-07
-1.31077e-06
-1.42079e-07
-8.19264e-07
-2.49146e-07
-1.91191e-07
4.42284e-07
-6.82322e-07
1.3124e-06
-1.38731e-06
2.01555e-06
-2.21687e-06
2.47072e-06
-3.08369e-06
2.65258e-06
-3.908e-06
2.56996e-06
-4.62173e-06
2.25409e-06
-5.17092e-06
1.7495e-06
-5.51683e-06
1.10739e-06
-5.63605e-06
3.8164e-07
-5.5205e-06
-3.72947e-07
-5.17741e-06
-1.10114e-06
-4.62954e-06
-1.74739e-06
-3.91542e-06
-2.2565e-06
-3.08924e-06
-2.57577e-06
-2.21979e-06
-2.65946e-06
-1.38782e-06
-2.47592e-06
-6.81516e-07
-2.01707e-06
-1.90464e-07
-1.31032e-06
-4.39609e-07
-2.38363e-07
6.80646e-07
-8.42074e-07
1.91612e-06
-1.69485e-06
2.86832e-06
-2.68224e-06
3.45811e-06
-3.6988e-06
3.66914e-06
-4.6532e-06
3.52436e-06
-5.47103e-06
3.07191e-06
-6.09555e-06
2.37402e-06
-6.48718e-06
1.49902e-06
-6.62249e-06
5.16943e-07
-6.49331e-06
-5.02119e-07
-6.1066e-06
-1.48786e-06
-5.48483e-06
-2.36916e-06
-4.66712e-06
-3.0742e-06
-3.7104e-06
-3.53249e-06
-2.68994e-06
-3.67992e-06
-1.6984e-06
-3.46746e-06
-8.42623e-07
-2.87285e-06
-2.37897e-07
-1.91504e-06
-6.77505e-07
-2.87375e-07
9.68021e-07
-1.00756e-06
2.6363e-06
-2.01123e-06
3.87199e-06
-3.15613e-06
4.60302e-06
-4.31756e-06
4.83056e-06
-5.3933e-06
4.6001e-06
-6.30461e-06
3.98322e-06
-6.99453e-06
3.06394e-06
-7.42505e-06
1.92955e-06
-7.57435e-06
6.66242e-07
-7.43478e-06
-6.41691e-07
-7.0123e-06
-1.91034e-06
-6.32737e-06
-3.05409e-06
-5.41719e-06
-3.98438e-06
-4.33873e-06
-4.61095e-06
-3.17171e-06
-4.84694e-06
-2.02011e-06
-4.61906e-06
-1.01075e-06
-3.8822e-06
-2.87573e-07
-2.63822e-06
-9.65078e-07
-3.41095e-07
1.30912e-06
-1.18539e-06
3.48059e-06
-2.34461e-06
5.03121e-06
-3.64498e-06
5.90339e-06
-4.94187e-06
6.12745e-06
-6.12406e-06
5.7823e-06
-7.11183e-06
4.97099e-06
-7.85177e-06
3.80388e-06
-8.31075e-06
2.38853e-06
-8.47069e-06
8.26187e-07
-8.32521e-06
-7.87173e-07
-7.87849e-06
-2.35706e-06
-7.14671e-06
-3.78587e-06
-6.16173e-06
-4.96937e-06
-4.97668e-06
-5.796e-06
-3.67221e-06
-6.1514e-06
-2.36175e-06
-5.92953e-06
-1.19296e-06
-5.05099e-06
-3.42526e-07
-3.48866e-06
-1.3076e-06
-4.02361e-07
1.71148e-06
-1.3816e-06
4.45983e-06
-2.70048e-06
6.35008e-06
-4.14876e-06
7.35167e-06
-5.56215e-06
7.54084e-06
-6.82435e-06
7.0445e-06
-7.86022e-06
6.00686e-06
-8.62545e-06
4.5691e-06
-9.09627e-06
2.85935e-06
-9.26128e-06
9.91202e-07
-9.11634e-06
-9.3211e-07
-8.66291e-06
-2.81049e-06
-7.90994e-06
-4.53884e-06
-6.87937e-06
-5.99994e-06
-5.61468e-06
-7.06069e-06
-4.19171e-06
-7.57436e-06
-2.72925e-06
-7.39199e-06
-1.39565e-06
-6.38459e-06
-4.05767e-07
-4.47855e-06
-1.71337e-06
-4.74539e-07
2.18602e-06
-1.60211e-06
5.5874e-06
-3.08112e-06
7.8291e-06
-4.65881e-06
8.92936e-06
-6.15361e-06
9.03565e-06
-7.45136e-06
8.34224e-06
-8.49008e-06
7.04559e-06
-9.24238e-06
5.3214e-06
-9.69974e-06
3.31671e-06
-9.86104e-06
1.1525e-06
-9.72564e-06
-1.06751e-06
-9.29118e-06
-3.24495e-06
-8.55594e-06
-5.27408e-06
-7.52594e-06
-7.02994e-06
-6.22701e-06
-8.35962e-06
-4.72116e-06
-9.08021e-06
-3.12498e-06
-8.98817e-06
-1.62503e-06
-7.88454e-06
-4.80824e-07
-5.62275e-06
-2.1942e-06
-5.6254e-07
2.74856e-06
-1.85378e-06
6.87864e-06
-3.48482e-06
9.46014e-06
-5.15443e-06
1.0599e-05
-6.67059e-06
1.05518e-05
-7.93355e-06
9.6052e-06
-8.90709e-06
8.01913e-06
-9.59084e-06
6.00514e-06
-9.99849e-06
3.72437e-06
-1.01432e-05
1.29718e-06
-1.00292e-05
-1.18148e-06
-9.64938e-06
-3.62477e-06
-8.98758e-06
-5.93589e-06
-8.02704e-06
-7.99048e-06
-6.76557e-06
-9.62109e-06
-5.23826e-06
-1.06075e-05
-3.54654e-06
-1.06799e-05
-1.88791e-06
-9.54317e-06
-5.72735e-07
-6.93792e-06
-2.76693e-06
-6.7452e-07
3.42308e-06
-2.14541e-06
8.34952e-06
-3.90336e-06
1.12181e-05
-5.59632e-06
1.22919e-05
-7.03718e-06
1.19927e-05
-8.16043e-06
1.07285e-05
-8.97256e-06
8.83125e-06
-9.51195e-06
6.54454e-06
-9.82148e-06
4.0339e-06
-9.93207e-06
1.40777e-06
-9.85422e-06
-1.25934e-06
-9.57527e-06
-3.90372e-06
-9.06167e-06
-6.44948e-06
-8.26726e-06
-8.7849e-06
-7.14994e-06
-1.07384e-05
-5.70034e-06
-1.20571e-05
-3.98385e-06
-1.23964e-05
-2.19254e-06
-1.13345e-05
-6.89691e-07
-8.44077e-06
-3.45662e-06
-8.24606e-07
4.24768e-06
-2.4877e-06
1.00126e-05
-4.31501e-06
1.30454e-05
-5.91335e-06
1.38903e-05
-7.1313e-06
1.32106e-05
-7.96731e-06
1.15645e-05
-8.49099e-06
9.35494e-06
-8.79058e-06
6.84412e-06
-8.94274e-06
4.18606e-06
-8.99764e-06
1.46268e-06
-8.97247e-06
-1.28451e-06
-8.84939e-06
-4.0268e-06
-8.57676e-06
-6.72212e-06
-8.07488e-06
-9.28677e-06
-7.25102e-06
-1.15623e-05
-6.03041e-06
-1.32777e-05
-4.41146e-06
-1.40153e-05
-2.54814e-06
-1.31978e-05
-8.45685e-07
-1.01432e-05
-4.30231e-06
-1.03671e-06
5.28439e-06
-2.88866e-06
1.18646e-05
-4.66644e-06
1.48232e-05
-5.97612e-06
1.51999e-05
-6.75774e-06
1.39923e-05
-7.11342e-06
1.19201e-05
-7.19559e-06
9.43711e-06
-7.14762e-06
6.79615e-06
-7.07836e-06
4.1168e-06
-7.05421e-06
1.43853e-06
-7.09793e-06
-1.24079e-06
-7.18834e-06
-3.93638e-06
-7.25948e-06
-6.65098e-06
-7.20077e-06
-9.34548e-06
-6.86426e-06
-1.18988e-05
-6.09037e-06
-1.40516e-05
-4.76963e-06
-1.53361e-05
-2.95964e-06
-1.50078e-05
-1.06413e-06
-1.20387e-05
-5.36644e-06
-1.34644e-06
6.63083e-06
-3.33291e-06
1.3851e-05
-4.82875e-06
1.6319e-05
-5.54566e-06
1.59168e-05
-5.60413e-06
1.40507e-05
-5.2524e-06
1.15684e-05
-4.73375e-06
8.91846e-06
-4.23764e-06
6.30005e-06
-3.89179e-06
3.77095e-06
-3.76873e-06
1.31546e-06
-3.8931e-06
-1.11642e-06
-4.2443e-06
-3.58518e-06
-4.75275e-06
-6.14252e-06
-5.29136e-06
-8.80688e-06
-5.66754e-06
-1.15226e-05
-5.63023e-06
-1.40889e-05
-4.91984e-06
-1.60465e-05
-3.40599e-06
-1.65216e-05
-1.37929e-06
-1.40654e-05
-6.74573e-06
-1.78533e-06
8.41616e-06
-3.71176e-06
1.57775e-05
-4.49667e-06
1.71039e-05
-4.17959e-06
1.55998e-05
-3.17554e-06
1.30467e-05
-1.89882e-06
1.02917e-05
-6.59797e-07
7.67943e-06
3.40654e-07
5.29959e-06
9.85507e-07
3.1261e-06
1.21487e-06
1.08611e-06
1.00871e-06
-9.1026e-07
3.81223e-07
-2.9577e-06
-6.12933e-07
-5.14836e-06
-1.86039e-06
-7.55942e-06
-3.16056e-06
-1.02224e-05
-4.19765e-06
-1.30518e-05
-4.54456e-06
-1.56996e-05
-3.76867e-06
-1.72975e-05
-1.8192e-06
-1.60149e-05
-8.56494e-06
-2.30055e-06
1.07167e-05
-3.62846e-06
1.71054e-05
-2.9768e-06
1.64523e-05
-1.07651e-06
1.36995e-05
1.28843e-06
1.06817e-05
3.59573e-06
7.98438e-06
5.55099e-06
5.72418e-06
7.00961e-06
3.84097e-06
7.90966e-06
2.22606e-06
8.22797e-06
7.67795e-07
7.95726e-06
-6.39557e-07
7.09904e-06
-2.09948e-06
5.67037e-06
-3.71969e-06
3.72701e-06
-5.61606e-06
1.40859e-06
-7.90402e-06
-9.91021e-07
-1.06522e-05
-2.9411e-06
-1.37495e-05
-3.63743e-06
-1.66012e-05
-2.32304e-06
-1.73293e-05
-1.0888e-05
-2.50005e-06
1.32168e-05
-1.92316e-06
1.65285e-05
1.21804e-06
1.33111e-05
5.15049e-06
9.76702e-06
8.88905e-06
6.94318e-06
1.2028e-05
4.84543e-06
1.44459e-05
3.30626e-06
1.61419e-05
2.14499e-06
1.71509e-05
1.21707e-06
1.75039e-05
4.14763e-07
1.72118e-05
-3.47399e-07
1.62603e-05
-1.148e-06
1.46141e-05
-2.07346e-06
1.22318e-05
-3.23382e-06
9.10619e-06
-4.77839e-06
5.3504e-06
-6.89643e-06
1.36788e-06
-9.76696e-06
-1.84484e-06
-1.33885e-05
-2.48529e-06
-1.66888e-05
-1.33733e-05
-5.63818e-07
1.37806e-05
4.6672e-06
1.12975e-05
1.11136e-05
6.86468e-06
1.66939e-05
4.18675e-06
2.10204e-05
2.61669e-06
2.42022e-05
1.66356e-06
2.64453e-05
1.06322e-06
2.79297e-05
6.6053e-07
2.87821e-05
3.64666e-07
2.90754e-05
1.21549e-07
2.88332e-05
-1.05205e-07
2.8032e-05
-3.46834e-07
2.65982e-05
-6.39724e-07
2.44026e-05
-1.03814e-06
2.12581e-05
-1.63394e-06
1.69478e-05
-2.58607e-06
1.13489e-05
-4.16809e-06
4.84219e-06
-6.88179e-06
-4.82363e-07
-1.13643e-05
-1.38556e-05
1.37806e-05
2.5078e-05
3.19427e-05
3.61295e-05
3.87462e-05
4.04097e-05
4.1473e-05
4.21335e-05
4.24981e-05
4.26197e-05
4.25145e-05
4.21677e-05
4.15279e-05
4.04898e-05
3.88559e-05
3.62698e-05
3.21017e-05
2.52199e-05
1.38556e-05
)
;

boundaryField
{
    movingWall
    {
        type            calculated;
        value           uniform 0;
    }
    fixedWalls
    {
        type            calculated;
        value           uniform 0;
    }
    frontAndBack
    {
        type            empty;
        value           nonuniform 0();
    }
}


// ************************************************************************* //
