/*--------------------------------*- C++ -*----------------------------------*\
  =========                 |
  \\      /  F ield         | OpenFOAM: The Open Source CFD Toolbox
   \\    /   O peration     | Website:  https://openfoam.org
    \\  /    A nd           | Version:  6
     \\/     M anipulation  |
\*---------------------------------------------------------------------------*/
FoamFile
{
    version     2.0;
    format      ascii;
    class       volScalarField;
    location    "0.125";
    object      p;
}
// * * * * * * * * * * * * * * * * * * * * * * * * * * * * * * * * * * * * * //

dimensions      [0 2 -2 0 0 0 0];

internalField   nonuniform List<scalar> 
400
(
2.79144e-08
-0.00027723
-0.000478352
-0.000481697
-0.000262193
0.000177207
0.000821734
0.00165072
0.00263871
0.00375343
0.00495316
0.006185
0.00738464
0.00847854
0.00938923
0.0100452
0.0103965
0.0104335
0.0102072
0.00988941
0.000276693
-9.20242e-06
-0.000152346
-0.00010947
0.000117316
0.000530551
0.00112469
0.00188604
0.00279406
0.00382011
0.00492568
0.00606149
0.00716786
0.00817746
0.00902105
0.00963741
0.00998831
0.0100701
0.00990416
0.00957741
0.000487796
0.000113481
-4.28525e-05
7.61345e-06
0.0002308
0.000626479
0.00119233
0.00191873
0.00278935
0.00377927
0.00485302
0.00596348
0.00705214
0.00805163
0.00889148
0.00950843
0.00986252
0.00994565
0.00975028
0.00931848
0.000499097
2.56199e-05
-0.000170808
-0.000132112
8.26839e-05
0.000469083
0.00102575
0.00174585
0.00261672
0.00361705
0.00471399
0.00586122
0.00699845
0.00805322
0.00894651
0.0096041
0.00997556
0.0100439
0.00978303
0.00922462
0.000255978
-0.000305537
-0.00054394
-0.000520271
-0.000312035
7.32562e-05
0.000635536
0.00137098
0.00227096
0.00331814
0.00448239
0.00571768
0.00696006
0.00812832
0.00912911
0.00986999
0.0102833
0.0103402
0.0100033
0.00931331
-0.000276395
-0.000921751
-0.00120186
-0.00119212
-0.000985776
-0.000592508
-1.04935e-05
0.000760208
0.00171596
0.00284448
0.00411945
0.00549556
0.00690444
0.00825298
0.00942735
0.0103079
0.0108
0.0108566
0.0104297
0.00958267
-0.00112854
-0.00186372
-0.00218747
-0.00218978
-0.00198057
-0.00157172
-0.000958937
-0.000137373
0.000895972
0.00213602
0.00356268
0.00513368
0.00677724
0.00838655
0.00982069
0.0109206
0.0115495
0.0116278
0.011088
0.0100265
-0.00233623
-0.00317583
-0.00354779
-0.00356092
-0.00334604
-0.0029182
-0.0022701
-0.00139056
-0.000267555
0.00110438
0.00271576
0.00453237
0.00648352
0.00845008
0.0102586
0.0116951
0.0125561
0.0127016
0.0120175
0.01064
-0.00394718
-0.00491328
-0.00534036
-0.005364
-0.00514367
-0.00469957
-0.00402112
-0.00308924
-0.00188013
-0.000373393
0.00143854
0.00353832
0.00586657
0.00830033
0.0106335
0.012581
0.0138359
0.0141458
0.0132873
0.0114272
-0.00602568
-0.0071476
-0.0076373
-0.00767044
-0.00744721
-0.00699638
-0.00630425
-0.00534264
-0.00407354
-0.00245718
-0.000461089
0.00192706
0.00467784
0.00768619
0.0107288
0.0134411
0.0153662
0.0160477
0.0150194
0.0124206
-0.00865875
-0.00997317
-0.0105292
-0.0105651
-0.0103403
-0.00989739
-0.00922004
-0.00827088
-0.0069969
-0.00533654
-0.00322577
-0.000607817
0.00254539
0.00618917
0.0101316
0.0139542
0.0170086
0.0184887
0.0174224
0.013739
-0.0119683
-0.0135181
-0.0141304
-0.0141451
-0.0139109
-0.0134894
-0.0128627
-0.0119852
-0.0107918
-0.00920185
-0.00711962
-0.00443408
-0.00102914
0.00317581
0.00812379
0.0134527
0.0183462
0.0214536
0.0208201
0.0157285
-0.0161368
-0.0179634
-0.0185847
-0.0185159
-0.0182384
-0.0178378
-0.0172919
-0.0165494
-0.0155399
-0.0141755
-0.0123419
-0.00988057
-0.00657124
-0.00213687
0.00366495
0.0107869
0.0184609
0.0246415
0.0256477
0.0192681
-0.0214638
-0.0235782
-0.0240717
-0.0237759
-0.0233678
-0.0229493
-0.0224836
-0.0219134
-0.0211738
-0.0201896
-0.0188572
-0.0170045
-0.0143265
-0.0103113
-0.00423673
0.00457337
0.0159435
0.0273009
0.0324332
0.0263087
-0.028492
-0.0307797
-0.0307971
-0.0299733
-0.0292497
-0.0287014
-0.0282472
-0.0278166
-0.0273572
-0.0268283
-0.0261732
-0.0252566
-0.0237442
-0.0209148
-0.0154684
-0.00561623
0.00984532
0.0286399
0.0419504
0.0404153
-0.0382847
-0.0402229
-0.0389215
-0.0369844
-0.0356089
-0.0347085
-0.0340963
-0.0336678
-0.0333781
-0.0332259
-0.0332169
-0.0332785
-0.0330873
-0.0317657
-0.0274789
-0.0172393
0.00207531
0.0298271
0.0562366
0.0669172
-0.0531066
-0.0528986
-0.0483781
-0.0443033
-0.041736
-0.0401331
-0.0391041
-0.0384675
-0.0381546
-0.0381715
-0.0385459
-0.0392175
-0.0398173
-0.0392784
-0.0352934
-0.0239118
-0.00026998
0.0375917
0.0820111
0.114828
-0.0787832
-0.0700249
-0.0583937
-0.0506092
-0.0460867
-0.0433816
-0.0417461
-0.0408146
-0.0404077
-0.0404597
-0.0409295
-0.0416468
-0.0420398
-0.0406817
-0.0346753
-0.0191706
0.0121384
0.0641925
0.134939
0.205586
-0.133443
-0.0909174
-0.0633949
-0.0505181
-0.0442184
-0.0408744
-0.0392314
-0.0386155
-0.0386192
-0.0390393
-0.039717
-0.0403083
-0.0399562
-0.0367848
-0.0271971
-0.00512701
0.0381368
0.112793
0.228386
0.374221
-0.258379
-0.106407
-0.0478178
-0.0342506
-0.0304528
-0.0291346
-0.0294467
-0.030674
-0.0322341
-0.0338616
-0.0353769
-0.0363777
-0.0358864
-0.0318428
-0.0203602
0.00542543
0.057158
0.154925
0.328473
0.598383
)
;

boundaryField
{
    movingWall
    {
        type            zeroGradient;
    }
    fixedWalls
    {
        type            zeroGradient;
    }
    frontAndBack
    {
        type            empty;
    }
}


// ************************************************************************* //
