/*--------------------------------*- C++ -*----------------------------------*\
  =========                 |
  \\      /  F ield         | OpenFOAM: The Open Source CFD Toolbox
   \\    /   O peration     | Website:  https://openfoam.org
    \\  /    A nd           | Version:  6
     \\/     M anipulation  |
\*---------------------------------------------------------------------------*/
FoamFile
{
    version     2.0;
    format      ascii;
    class       surfaceScalarField;
    location    "0.125";
    object      phi;
}
// * * * * * * * * * * * * * * * * * * * * * * * * * * * * * * * * * * * * * //

dimensions      [0 3 -1 0 0 0 0];

internalField   nonuniform List<scalar> 
760
(
-2.89096e-09
2.8907e-09
-4.44305e-08
4.15396e-08
-1.13163e-07
6.87325e-08
-1.93544e-07
8.03808e-08
-2.74936e-07
8.13926e-08
-3.50814e-07
7.58779e-08
-4.17088e-07
6.62739e-08
-4.70822e-07
5.37336e-08
-5.09485e-07
3.8663e-08
-5.3068e-07
2.11947e-08
-5.32189e-07
1.50979e-09
-5.12242e-07
-1.99478e-08
-4.69954e-07
-4.22875e-08
-4.05982e-07
-6.39717e-08
-3.23385e-07
-8.25971e-08
-2.28648e-07
-9.47366e-08
-1.32618e-07
-9.60304e-08
-5.09552e-08
-8.1663e-08
-2.92699e-09
-4.80282e-08
-2.92707e-09
-4.21348e-08
4.50255e-08
-1.56439e-07
1.55844e-07
-3.18793e-07
2.31087e-07
-5.03052e-07
2.6464e-07
-6.88566e-07
2.66907e-07
-8.61033e-07
2.48344e-07
-1.01072e-06
2.15963e-07
-1.13052e-06
1.73535e-07
-1.21465e-06
1.22788e-07
-1.25807e-06
6.46197e-08
-1.25656e-06
-3.06502e-12
-1.20712e-06
-6.93912e-08
-1.10884e-06
-1.40567e-07
-9.64133e-07
-2.08676e-07
-7.80312e-07
-2.66418e-07
-5.71311e-07
-3.03738e-07
-3.58965e-07
-3.08376e-07
-1.72628e-07
-2.68e-07
-4.47963e-08
-1.7586e-07
-4.77234e-08
-7.42321e-08
1.19258e-07
-2.47026e-07
3.28638e-07
-4.78481e-07
4.62542e-07
-7.34803e-07
5.20961e-07
-9.90059e-07
5.22163e-07
-1.22595e-06
4.84241e-07
-1.42973e-06
4.19733e-07
-1.59192e-06
3.35725e-07
-1.70488e-06
2.35756e-07
-1.76212e-06
1.21857e-07
-1.75824e-06
-3.88253e-09
-1.68951e-06
-1.38118e-07
-1.55491e-06
-2.7517e-07
-1.35767e-06
-4.05916e-07
-1.10733e-06
-5.16758e-07
-8.21879e-07
-5.8919e-07
-5.29263e-07
-6.00993e-07
-2.66816e-07
-5.30447e-07
-7.68911e-08
-3.65785e-07
-1.24615e-07
-9.60678e-08
2.15325e-07
-3.13404e-07
5.45974e-07
-5.97924e-07
7.47062e-07
-9.08321e-07
8.31359e-07
-1.21473e-06
8.28571e-07
-1.4966e-06
7.66114e-07
-1.7397e-06
6.62834e-07
-1.93344e-06
5.29463e-07
-2.06915e-06
3.71465e-07
-2.13928e-06
1.91989e-07
-2.13734e-06
-5.82611e-09
-2.05844e-06
-2.17016e-07
-1.90055e-06
-4.33057e-07
-1.66644e-06
-6.40029e-07
-1.36629e-06
-8.16906e-07
-1.02063e-06
-9.34854e-07
-6.62456e-07
-9.59165e-07
-3.37074e-07
-8.5583e-07
-9.79397e-08
-6.04919e-07
-2.22554e-07
-1.12352e-07
3.27678e-07
-3.65829e-07
7.99451e-07
-6.94759e-07
1.07599e-06
-1.05071e-06
1.18731e-06
-1.40027e-06
1.17814e-06
-1.72135e-06
1.08719e-06
-1.99899e-06
9.40478e-07
-2.22212e-06
7.52595e-07
-2.38144e-06
5.30779e-07
-2.46839e-06
2.78939e-07
-2.47499e-06
7.76093e-10
-2.39438e-06
-2.97627e-07
-2.22224e-06
-6.05194e-07
-1.95933e-06
-9.02936e-07
-1.6151e-06
-1.16114e-06
-1.21193e-06
-1.33803e-06
-7.88579e-07
-1.38251e-06
-4.00563e-07
-1.24385e-06
-1.14993e-07
-8.90488e-07
-3.37547e-07
-1.27226e-07
4.54904e-07
-4.14797e-07
1.08702e-06
-7.86474e-07
1.44767e-06
-1.18681e-06
1.58764e-06
-1.57896e-06
1.57028e-06
-1.93957e-06
1.4478e-06
-2.25346e-06
1.25437e-06
-2.50946e-06
1.0086e-06
-2.69787e-06
7.19183e-07
-2.80905e-06
3.9012e-07
-2.83302e-06
2.47467e-08
-2.75986e-06
-3.70783e-07
-2.58136e-06
-7.83699e-07
-2.29422e-06
-1.19008e-06
-1.90524e-06
-1.55012e-06
-1.43778e-06
-1.80548e-06
-9.3764e-07
-1.88266e-06
-4.74412e-07
-1.70707e-06
-1.33973e-07
-1.23093e-06
-4.7152e-07
-1.43626e-07
5.9853e-07
-4.68377e-07
1.41177e-06
-8.86596e-07
1.86589e-06
-1.33532e-06
2.03637e-06
-1.77418e-06
2.00914e-06
-2.17887e-06
1.8525e-06
-2.53442e-06
1.60992e-06
-2.83008e-06
1.30426e-06
-3.05609e-06
9.45188e-07
-3.20181e-06
5.35841e-07
-3.25484e-06
7.77752e-08
-3.20108e-06
-4.24544e-07
-3.02635e-06
-9.58425e-07
-2.72042e-06
-1.49601e-06
-2.28415e-06
-1.98638e-06
-1.73964e-06
-2.34999e-06
-1.14046e-06
-2.48185e-06
-5.75884e-07
-2.27165e-06
-1.60052e-07
-1.64676e-06
-6.31572e-07
-1.6359e-07
7.6212e-07
-5.32356e-07
1.78054e-06
-1.0047e-06
2.33823e-06
-1.50896e-06
2.54062e-06
-2.00108e-06
2.50126e-06
-2.45627e-06
2.30768e-06
-2.86046e-06
2.01412e-06
-3.20412e-06
1.64791e-06
-3.47815e-06
1.21922e-06
-3.67142e-06
7.29114e-07
-3.7691e-06
1.75451e-07
-3.75196e-06
-4.41684e-07
-3.59751e-06
-1.11288e-06
-3.2844e-06
-1.80912e-06
-2.80198e-06
-2.4688e-06
-2.16569e-06
-2.98628e-06
-1.43543e-06
-3.2121e-06
-7.27181e-07
-2.9799e-06
-1.99659e-07
-2.17428e-06
-8.31231e-07
-1.88757e-07
9.50877e-07
-6.11304e-07
2.20309e-06
-1.14793e-06
2.87486e-06
-1.71644e-06
3.10914e-06
-2.26899e-06
3.05381e-06
-2.78103e-06
2.81972e-06
-3.24055e-06
2.47364e-06
-3.64045e-06
2.04781e-06
-3.97366e-06
1.55242e-06
-4.22975e-06
9.85206e-07
-4.39227e-06
3.37975e-07
-4.43664e-06
-3.97316e-07
-4.32976e-06
-1.21976e-06
-4.03378e-06
-2.1051e-06
-3.5176e-06
-2.98498e-06
-2.77925e-06
-3.72463e-06
-1.87805e-06
-4.1133e-06
-9.63043e-07
-3.89491e-06
-2.63586e-07
-2.87374e-06
-1.09482e-06
-2.21001e-07
1.17188e-06
-7.09986e-07
2.69207e-06
-1.32293e-06
3.4878e-06
-1.96467e-06
3.75088e-06
-2.58368e-06
3.67282e-06
-3.1569e-06
3.39294e-06
-3.67599e-06
2.99272e-06
-4.1381e-06
2.50992e-06
-4.54016e-06
1.95449e-06
-4.87473e-06
1.31977e-06
-5.12587e-06
5.89117e-07
-5.26488e-06
-2.58309e-07
-5.24688e-06
-1.23776e-06
-5.01174e-06
-2.34023e-06
-4.49554e-06
-3.50119e-06
-3.66048e-06
-4.55969e-06
-2.54775e-06
-5.22603e-06
-1.33936e-06
-5.10329e-06
-3.71478e-07
-3.84163e-06
-1.4663e-06
-2.63206e-07
1.43508e-06
-8.34915e-07
3.26378e-06
-1.53766e-06
4.19055e-06
-2.26035e-06
4.47357e-06
-2.94852e-06
4.36099e-06
-3.58253e-06
4.02695e-06
-4.1598e-06
3.57e-06
-4.68398e-06
3.0341e-06
-5.15869e-06
2.42919e-06
-5.58269e-06
1.74378e-06
-5.94445e-06
9.50877e-07
-6.21481e-06
1.20525e-08
-6.33877e-06
-1.11381e-06
-6.23018e-06
-2.44881e-06
-5.77885e-06
-3.95253e-06
-4.88525e-06
-5.45329e-06
-3.5392e-06
-6.57207e-06
-1.9368e-06
-6.70569e-06
-5.57243e-07
-5.22118e-06
-2.02354e-06
-3.20392e-07
1.75548e-06
-9.96195e-07
3.93958e-06
-1.80284e-06
4.99719e-06
-2.61033e-06
5.28106e-06
-3.36334e-06
5.114e-06
-4.04858e-06
4.71219e-06
-4.67172e-06
4.19314e-06
-5.24523e-06
3.60761e-06
-5.78216e-06
2.96612e-06
-6.29135e-06
2.25298e-06
-6.77094e-06
1.43047e-06
-7.19794e-06
4.39047e-07
-7.51371e-06
-7.98037e-07
-7.60892e-06
-2.35361e-06
-7.31961e-06
-4.24183e-06
-6.45851e-06
-6.31439e-06
-4.91531e-06
-8.11527e-06
-2.84507e-06
-8.77593e-06
-8.7316e-07
-7.19309e-06
-2.8967e-06
-4.01637e-07
2.15711e-06
-1.20983e-06
4.74777e-06
-2.13246e-06
5.91982e-06
-3.01916e-06
6.16776e-06
-3.81871e-06
5.91355e-06
-4.52856e-06
5.42204e-06
-5.16539e-06
4.82996e-06
-5.75232e-06
4.19455e-06
-6.3138e-06
3.5276e-06
-6.87178e-06
2.81096e-06
-7.43929e-06
1.99798e-06
-8.00816e-06
1.00791e-06
-8.52873e-06
-2.77465e-07
-8.88336e-06
-1.99897e-06
-8.86509e-06
-4.2601e-06
-8.19075e-06
-6.98874e-06
-6.60048e-06
-9.70554e-06
-4.10555e-06
-1.12709e-05
-1.38585e-06
-9.91279e-06
-4.28255e-06
-5.23623e-07
2.68074e-06
-1.50044e-06
5.72459e-06
-2.54115e-06
6.96054e-06
-3.4794e-06
7.10602e-06
-4.27917e-06
6.71332e-06
-4.95574e-06
6.0986e-06
-5.53995e-06
5.41417e-06
-6.06668e-06
4.72127e-06
-6.57184e-06
4.03277e-06
-7.09077e-06
3.32988e-06
-7.65376e-06
2.56097e-06
-8.27507e-06
1.62923e-06
-8.93111e-06
3.78572e-07
-9.52586e-06
-1.40422e-06
-9.85014e-06
-3.93583e-06
-9.55945e-06
-7.27943e-06
-8.22857e-06
-1.10364e-05
-5.59358e-06
-1.39059e-05
-2.14479e-06
-1.33616e-05
-6.42734e-06
-7.17389e-07
3.39812e-06
-1.90318e-06
6.91038e-06
-3.0318e-06
8.08916e-06
-3.94338e-06
8.0176e-06
-4.6412e-06
7.41114e-06
-5.17055e-06
6.62796e-06
-5.58135e-06
5.82498e-06
-5.92105e-06
5.06097e-06
-6.235e-06
4.34672e-06
-6.56797e-06
3.66285e-06
-6.96392e-06
2.95692e-06
-7.46106e-06
2.12636e-06
-8.07659e-06
9.94098e-07
-8.77455e-06
-7.06256e-07
-9.41278e-06
-3.2976e-06
-9.67604e-06
-7.01617e-06
-9.03369e-06
-1.16788e-05
-6.85843e-06
-1.60811e-05
-3.08683e-06
-1.71332e-05
-9.51417e-06
-1.04e-06
4.43812e-06
-2.45726e-06
8.32764e-06
-3.55193e-06
9.18382e-06
-4.24612e-06
8.71179e-06
-4.63254e-06
7.79756e-06
-4.80743e-06
6.80285e-06
-4.84758e-06
5.86513e-06
-4.81396e-06
5.02735e-06
-4.75732e-06
4.29007e-06
-4.72367e-06
3.6292e-06
-4.76003e-06
2.99328e-06
-4.91923e-06
2.28557e-06
-5.2599e-06
1.33477e-06
-5.83175e-06
-1.34412e-07
-6.62929e-06
-2.50005e-06
-7.4921e-06
-6.15336e-06
-7.93902e-06
-1.12318e-05
-7.03831e-06
-1.69818e-05
-3.87461e-06
-2.02969e-05
-1.33888e-05
-1.58835e-06
6.02647e-06
-3.14459e-06
9.88389e-06
-3.83948e-06
9.8787e-06
-3.89284e-06
8.76516e-06
-3.57739e-06
7.48211e-06
-3.06524e-06
6.2907e-06
-2.46207e-06
5.26196e-06
-1.83606e-06
4.40134e-06
-1.2331e-06
3.68711e-06
-6.87858e-07
3.08396e-06
-2.35225e-07
2.54065e-06
7.56892e-08
1.97466e-06
1.64868e-07
1.24559e-06
-9.12706e-08
1.21727e-07
-8.4591e-07
-1.74541e-06
-2.19224e-06
-4.80704e-06
-3.91487e-06
-9.50921e-06
-5.04647e-06
-1.58502e-05
-3.8126e-06
-2.15308e-05
-1.72014e-05
-2.47068e-06
8.49715e-06
-3.50809e-06
1.09213e-05
-2.83899e-06
9.2096e-06
-1.44956e-06
7.37574e-06
1.38261e-07
5.89428e-06
1.71885e-06
4.71011e-06
3.2057e-06
3.77511e-06
4.56051e-06
3.04653e-06
5.76984e-06
2.47779e-06
6.83023e-06
2.02356e-06
7.73426e-06
1.63662e-06
8.45327e-06
1.25564e-06
8.91223e-06
7.86638e-07
8.95603e-06
7.79239e-08
8.32092e-06
-1.1103e-06
6.65878e-06
-3.1449e-06
3.74074e-06
-6.59117e-06
1.04219e-07
-1.22137e-05
-2.01648e-06
-1.94101e-05
-1.92179e-05
-2.85182e-06
1.1349e-05
-4.81489e-07
8.55096e-06
3.38663e-06
5.34148e-06
6.97025e-06
3.79211e-06
1.00431e-05
2.82146e-06
1.26469e-05
2.10625e-06
1.48368e-05
1.58522e-06
1.66709e-05
1.21245e-06
1.8206e-05
9.42687e-07
1.94889e-05
7.40669e-07
2.05479e-05
5.77588e-07
2.13807e-05
4.22902e-07
2.19316e-05
2.35745e-07
2.20544e-05
-4.49524e-08
2.14584e-05
-5.14274e-07
1.96502e-05
-1.33673e-06
1.59452e-05
-2.88616e-06
9.86544e-06
-6.13392e-06
2.72269e-06
-1.22673e-05
-1.64952e-05
1.1349e-05
1.98999e-05
2.52414e-05
2.90335e-05
3.1855e-05
3.39612e-05
3.55465e-05
3.67589e-05
3.77016e-05
3.84423e-05
3.90199e-05
3.94428e-05
3.96785e-05
3.96336e-05
3.91193e-05
3.77826e-05
3.48964e-05
2.87625e-05
1.64952e-05
)
;

boundaryField
{
    movingWall
    {
        type            calculated;
        value           uniform 0;
    }
    fixedWalls
    {
        type            calculated;
        value           uniform 0;
    }
    frontAndBack
    {
        type            empty;
        value           nonuniform 0();
    }
}


// ************************************************************************* //
