/*--------------------------------*- C++ -*----------------------------------*\
  =========                 |
  \\      /  F ield         | OpenFOAM: The Open Source CFD Toolbox
   \\    /   O peration     | Website:  https://openfoam.org
    \\  /    A nd           | Version:  6
     \\/     M anipulation  |
\*---------------------------------------------------------------------------*/
FoamFile
{
    version     2.0;
    format      ascii;
    class       volVectorField;
    location    "0.125";
    object      U;
}
// * * * * * * * * * * * * * * * * * * * * * * * * * * * * * * * * * * * * * //

dimensions      [0 1 -1 0 0 0 0];

internalField   nonuniform List<vector> 
400
(
(3.54616e-05 -3.68511e-05 0)
(-0.000354302 0.000269243 0)
(-0.00149806 0.000499692 0)
(-0.00304267 0.000598696 0)
(-0.00469631 0.000609831 0)
(-0.00629134 0.00057062 0)
(-0.00772787 0.000501782 0)
(-0.00893936 0.000411997 0)
(-0.00987305 0.00030336 0)
(-0.0104802 0.000175733 0)
(-0.0107142 2.95166e-05 0)
(-0.0105339 -0.000132601 0)
(-0.00991078 -0.000304183 0)
(-0.00883993 -0.000473376 0)
(-0.00735515 -0.000620921 0)
(-0.0055484 -0.000718409 0)
(-0.00358929 -0.00072818 0)
(-0.00174395 -0.0006061 0)
(-0.000399022 -0.000319716 0)
(4.57765e-05 4.10806e-05 0)
(-0.000273592 0.000349416 0)
(-0.00171267 0.0016829 0)
(-0.00457766 0.00262794 0)
(-0.00817111 0.00305091 0)
(-0.0119521 0.00309016 0)
(-0.0155855 0.00288279 0)
(-0.0188444 0.00251627 0)
(-0.0215677 0.00203484 0)
(-0.0236303 0.00145647 0)
(-0.0249253 0.000788972 0)
(-0.0253593 4.14858e-05 0)
(-0.0248572 -0.000767598 0)
(-0.0233759 -0.00160384 0)
(-0.0209245 -0.00240959 0)
(-0.0175933 -0.00309654 0)
(-0.0135883 -0.00354103 0)
(-0.00925868 -0.00358897 0)
(-0.00511242 -0.00307925 0)
(-0.00185743 -0.00191957 0)
(-0.000278046 -0.000369 0)
(-0.000539059 0.00153451 0)
(-0.00284259 0.00460046 0)
(-0.00702932 0.00663089 0)
(-0.0120829 0.00753533 0)
(-0.0173087 0.00758223 0)
(-0.0222912 0.00704746 0)
(-0.0267386 0.00612101 0)
(-0.0304367 0.00490839 0)
(-0.0332196 0.00346056 0)
(-0.0349475 0.00180577 0)
(-0.0355005 -2.62566e-05 0)
(-0.034784 -0.0019864 0)
(-0.0327449 -0.00399034 0)
(-0.0293975 -0.00590241 0)
(-0.0248604 -0.00752032 0)
(-0.0194008 -0.00856813 0)
(-0.0134657 -0.0087132 0)
(-0.00769517 -0.00762844 0)
(-0.00300718 -0.00514378 0)
(-0.00053561 -0.00160964 0)
(-0.00071212 0.00326812 0)
(-0.00364965 0.00856865 0)
(-0.00885417 0.0118754 0)
(-0.015017 0.0132956 0)
(-0.0213122 0.0132919 0)
(-0.0272754 0.0123101 0)
(-0.0325824 0.0106596 0)
(-0.0369947 0.00851723 0)
(-0.0403253 0.00597296 0)
(-0.0424143 0.00307936 0)
(-0.0431205 -0.000110115 0)
(-0.0423263 -0.00351137 0)
(-0.0399558 -0.00698231 0)
(-0.0360059 -0.0102947 0)
(-0.0305945 -0.0131079 0)
(-0.0240173 -0.014959 0)
(-0.0167922 -0.0152934 0)
(-0.00968171 -0.0135708 0)
(-0.00382232 -0.00948844 0)
(-0.000689474 -0.0033857 0)
(-0.000833901 0.00536542 0)
(-0.00426926 0.0133015 0)
(-0.0103175 0.0180369 0)
(-0.0174135 0.0199853 0)
(-0.0246091 0.0198753 0)
(-0.0314011 0.0183581 0)
(-0.0374486 0.0158778 0)
(-0.0425029 0.0126865 0)
(-0.0463671 0.0089123 0)
(-0.0488658 0.00462801 0)
(-0.0498333 -9.48413e-05 0)
(-0.0491168 -0.00514258 0)
(-0.0465963 -0.0103171 0)
(-0.0422224 -0.0152901 0)
(-0.0360803 -0.019561 0)
(-0.028471 -0.0224381 0)
(-0.0199813 -0.0230855 0)
(-0.0115281 -0.0206807 0)
(-0.00452128 -0.0147243 0)
(-0.000798376 -0.00551652 0)
(-0.000942431 0.00776015 0)
(-0.00484086 0.0187075 0)
(-0.011694 0.0250356 0)
(-0.0196938 0.0275392 0)
(-0.0277713 0.0272822 0)
(-0.0353877 0.0251625 0)
(-0.0421937 0.0217765 0)
(-0.0479401 0.0174554 0)
(-0.052427 0.0123603 0)
(-0.0554656 0.0065737 0)
(-0.0568602 0.000171319 0)
(-0.0564076 -0.00671854 0)
(-0.053916 -0.0138522 0)
(-0.0492522 -0.0207993 0)
(-0.0424259 -0.0268716 0)
(-0.0337108 -0.0310876 0)
(-0.0237617 -0.0322351 0)
(-0.0137012 -0.0291015 0)
(-0.00531758 -0.0209173 0)
(-0.000911258 -0.00798392 0)
(-0.00106344 0.0104583 0)
(-0.00546893 0.0248078 0)
(-0.0131982 0.0329077 0)
(-0.0221818 0.0360035 0)
(-0.031222 0.0355674 0)
(-0.0397476 0.0327909 0)
(-0.0474093 0.028444 0)
(-0.0539677 0.0229401 0)
(-0.0592291 0.0164654 0)
(-0.0629965 0.00909597 0)
(-0.0650415 0.000888455 0)
(-0.0650961 -0.00804129 0)
(-0.0628657 -0.0174285 0)
(-0.0580821 -0.0267489 0)
(-0.0506149 -0.0350995 0)
(-0.0406472 -0.0411256 0)
(-0.0288753 -0.0430924 0)
(-0.0166844 -0.0392201 0)
(-0.00641607 -0.028353 0)
(-0.00106581 -0.0108774 0)
(-0.00121422 0.013513 0)
(-0.00622768 0.0317066 0)
(-0.0149844 0.0417731 0)
(-0.0251037 0.045497 0)
(-0.0352432 0.0448461 0)
(-0.0448048 0.0413612 0)
(-0.0534525 0.0360117 0)
(-0.0609725 0.0292978 0)
(-0.0671932 0.0214205 0)
(-0.0719222 0.0124278 0)
(-0.0749056 0.00232398 0)
(-0.0758026 -0.00883093 0)
(-0.0741849 -0.020798 0)
(-0.069585 -0.0329921 0)
(-0.0616309 -0.0442832 0)
(-0.050295 -0.0528434 0)
(-0.0362245 -0.0561987 0)
(-0.0210988 -0.0517003 0)
(-0.00808065 -0.037573 0)
(-0.00130658 -0.0143918 0)
(-0.00140902 0.0170125 0)
(-0.00717721 0.0395718 0)
(-0.0171722 0.0518134 0)
(-0.0286231 0.0561845 0)
(-0.0400194 0.0552626 0)
(-0.0507476 0.0510089 0)
(-0.060506 0.044624 0)
(-0.0691309 0.0367014 0)
(-0.0764988 0.0274466 0)
(-0.0824488 0.0168543 0)
(-0.0867235 0.00483317 0)
(-0.0889188 -0.00867624 0)
(-0.0884519 -0.0235422 0)
(-0.0845832 -0.0391987 0)
(-0.0765554 -0.0543218 0)
(-0.0639201 -0.0665194 0)
(-0.04706 -0.0722789 0)
(-0.0278876 -0.0675672 0)
(-0.0107465 -0.0494939 0)
(-0.00171436 -0.0188805 0)
(-0.0016656 0.0210778 0)
(-0.00838436 0.048627 0)
(-0.0198813 0.0632534 0)
(-0.0328825 0.068249 0)
(-0.0456828 0.0669571 0)
(-0.0576743 0.0618504 0)
(-0.0686212 0.0544004 0)
(-0.0784439 0.0453038 0)
(-0.0871055 0.0347632 0)
(-0.0945199 0.0226948 0)
(-0.100472 0.00886284 0)
(-0.104534 -0.00699659 0)
(-0.105977 -0.0249856 0)
(-0.103728 -0.0447142 0)
(-0.0964698 -0.0647953 0)
(-0.0830144 -0.0822521 0)
(-0.0630678 -0.0921714 0)
(-0.0384914 -0.0883035 0)
(-0.0151733 -0.0656178 0)
(-0.00245433 -0.0249852 0)
(-0.0020139 0.0258748 0)
(-0.00994756 0.0591584 0)
(-0.023267 0.0763509 0)
(-0.03804 0.0818656 0)
(-0.0523426 0.0800285 0)
(-0.0656103 0.073939 0)
(-0.0777174 0.0653858 0)
(-0.0887114 0.0551826 0)
(-0.0986896 0.0435276 0)
(-0.1077 0.0302419 0)
(-0.115643 0.0148992 0)
(-0.122147 -0.00306688 0)
(-0.126402 -0.0241673 0)
(-0.126997 -0.048448 0)
(-0.121895 -0.0747535 0)
(-0.108781 -0.0996814 0)
(-0.0860415 -0.1166 0)
(-0.0548111 -0.115847 0)
(-0.0225961 -0.0883035 0)
(-0.00385185 -0.0338735 0)
(-0.00250985 0.0316446 0)
(-0.0120303 0.071538 0)
(-0.0275562 0.0913884 0)
(-0.0442894 0.0971656 0)
(-0.0600784 0.0944811 0)
(-0.0744701 0.087199 0)
(-0.0875067 0.0774708 0)
(-0.099409 0.0662419 0)
(-0.110457 0.0537145 0)
(-0.120895 0.0396143 0)
(-0.130833 0.0232973 0)
(-0.140078 0.00380398 0)
(-0.147881 -0.0199902 0)
(-0.152604 -0.0489296 0)
(-0.151468 -0.0825968 0)
(-0.140712 -0.117635 0)
(-0.116651 -0.145651 0)
(-0.0785381 -0.152208 0)
(-0.0347255 -0.120902 0)
(-0.00649618 -0.047595 0)
(-0.00326119 0.0387645 0)
(-0.0149121 0.0862609 0)
(-0.0330833 0.108647 0)
(-0.0518446 0.114165 0)
(-0.0688599 0.110128 0)
(-0.0839079 0.101311 0)
(-0.0972739 0.0902559 0)
(-0.109394 0.0780469 0)
(-0.120763 0.0649047 0)
(-0.13187 0.0504832 0)
(-0.143111 0.0339298 0)
(-0.15461 0.0138421 0)
(-0.165896 -0.0116995 0)
(-0.175395 -0.0447414 0)
(-0.179866 -0.0862837 0)
(-0.174157 -0.133869 0)
(-0.151994 -0.177898 0)
(-0.109349 -0.198294 0)
(-0.0532334 -0.167253 0)
(-0.0113227 -0.0694499 0)
(-0.00447829 0.047863 0)
(-0.0190697 0.103984 0)
(-0.0403037 0.128318 0)
(-0.060822 0.132601 0)
(-0.0782825 0.126398 0)
(-0.0929171 0.115502 0)
(-0.105358 0.102825 0)
(-0.11629 0.0895684 0)
(-0.126433 0.0759815 0)
(-0.136517 0.0616865 0)
(-0.147237 0.0456771 0)
(-0.159125 0.0261414 0)
(-0.172224 0.000299485 0)
(-0.185499 -0.0353864 0)
(-0.195973 -0.0840002 0)
(-0.197875 -0.145122 0)
(-0.182636 -0.20939 0)
(-0.141959 -0.251799 0)
(-0.0780419 -0.229785 0)
(-0.019419 -0.10401 0)
(-0.00657457 0.0600367 0)
(-0.0253045 0.125522 0)
(-0.0497143 0.150246 0)
(-0.0708367 0.151568 0)
(-0.0868522 0.14195 0)
(-0.0988646 0.128175 0)
(-0.108014 0.113398 0)
(-0.115282 0.0988616 0)
(-0.121593 0.0848204 0)
(-0.127851 0.0708926 0)
(-0.134965 0.0560056 0)
(-0.143823 0.0380865 0)
(-0.155112 0.0136661 0)
(-0.168844 -0.022221 0)
(-0.183393 -0.0750546 0)
(-0.193997 -0.147573 0)
(-0.191406 -0.23305 0)
(-0.163412 -0.304902 0)
(-0.103898 -0.30597 0)
(-0.0308503 -0.156318 0)
(-0.0103457 0.07731 0)
(-0.0348795 0.151679 0)
(-0.0613943 0.173287 0)
(-0.0797738 0.168764 0)
(-0.0901566 0.153964 0)
(-0.0952964 0.136309 0)
(-0.0970829 0.118892 0)
(-0.0968551 0.102809 0)
(-0.095705 0.0882162 0)
(-0.0945825 0.0746927 0)
(-0.0944101 0.0611745 0)
(-0.0962053 0.0455757 0)
(-0.101159 0.0242113 0)
(-0.110518 -0.00867259 0)
(-0.124919 -0.0604956 0)
(-0.142634 -0.137718 0)
(-0.156707 -0.239194 0)
(-0.153544 -0.343102 0)
(-0.117063 -0.384219 0)
(-0.0417982 -0.22979 0)
(-0.0171782 0.103845 0)
(-0.0492551 0.182371 0)
(-0.0728565 0.193449 0)
(-0.0799399 0.178652 0)
(-0.0762205 0.156696 0)
(-0.0671821 0.134515 0)
(-0.0555647 0.11447 0)
(-0.042967 0.0971351 0)
(-0.030467 0.0823303 0)
(-0.0188285 0.0694753 0)
(-0.00871155 0.0575343 0)
(-0.000928632 0.0446645 0)
(0.00323953 0.0276132 0)
(0.00172958 0.00100541 0)
(-0.00830334 -0.0430064 0)
(-0.0293354 -0.113722 0)
(-0.0601354 -0.217623 0)
(-0.0907803 -0.345894 0)
(-0.0971193 -0.439901 0)
(-0.0413577 -0.319144 0)
(-0.0283884 0.14842 0)
(-0.0664421 0.212367 0)
(-0.0687236 0.197256 0)
(-0.0453628 0.167641 0)
(-0.0137699 0.139001 0)
(0.0187222 0.114203 0)
(0.0497589 0.0937218 0)
(0.0783413 0.0771878 0)
(0.10404 0.0638819 0)
(0.126739 0.0529785 0)
(0.146374 0.0434924 0)
(0.162628 0.0340023 0)
(0.174527 0.0221913 0)
(0.179887 0.00421413 0)
(0.174716 -0.0260277 0)
(0.153136 -0.0775814 0)
(0.108984 -0.162746 0)
(0.0418556 -0.291593 0)
(-0.0231143 -0.432542 0)
(-0.0105545 -0.390902 0)
(-0.0305494 0.216828 0)
(-0.0447375 0.217285 0)
(0.0250899 0.158998 0)
(0.104015 0.119707 0)
(0.171951 0.0922727 0)
(0.228805 0.0714296 0)
(0.276566 0.0555874 0)
(0.316608 0.0437061 0)
(0.350089 0.0347703 0)
(0.378055 0.0278983 0)
(0.401282 0.0222954 0)
(0.420056 0.0170655 0)
(0.433848 0.0109554 0)
(0.440781 0.00202136 0)
(0.436789 -0.0128174 0)
(0.414686 -0.0386243 0)
(0.363002 -0.0854381 0)
(0.266911 -0.175622 0)
(0.136035 -0.318502 0)
(0.0858784 -0.364248 0)
(0.261152 0.132628 0)
(0.322501 0.117965 0)
(0.44375 0.0794578 0)
(0.544109 0.0542287 0)
(0.612673 0.0382142 0)
(0.661003 0.0272262 0)
(0.697012 0.0195236 0)
(0.724496 0.0141604 0)
(0.745711 0.0104282 0)
(0.762264 0.00779172 0)
(0.775212 0.0058422 0)
(0.78503 0.00421726 0)
(0.791476 0.00251409 0)
(0.793329 0.000196898 0)
(0.787787 -0.00351432 0)
(0.769681 -0.00985879 0)
(0.728944 -0.021407 0)
(0.648262 -0.0450138 0)
(0.489457 -0.101382 0)
(0.35796 -0.149104 0)
)
;

boundaryField
{
    movingWall
    {
        type            fixedValue;
        value           uniform (1 0 0);
    }
    fixedWalls
    {
        type            noSlip;
    }
    frontAndBack
    {
        type            empty;
    }
}


// ************************************************************************* //
