/*--------------------------------*- C++ -*----------------------------------*\
  =========                 |
  \\      /  F ield         | OpenFOAM: The Open Source CFD Toolbox
   \\    /   O peration     | Website:  https://openfoam.org
    \\  /    A nd           | Version:  6
     \\/     M anipulation  |
\*---------------------------------------------------------------------------*/
FoamFile
{
    version     2.0;
    format      ascii;
    class       surfaceScalarField;
    location    "0.01";
    object      phi;
}
// * * * * * * * * * * * * * * * * * * * * * * * * * * * * * * * * * * * * * //

dimensions      [0 3 -1 0 0 0 0];

internalField   nonuniform List<scalar> 
760
(
-1.96233e-08
1.96231e-08
-8.19251e-08
6.23018e-08
-1.60965e-07
7.90403e-08
-2.40465e-07
7.95e-08
-3.13372e-07
7.2907e-08
-3.76346e-07
6.29742e-08
-4.27386e-07
5.104e-08
-4.65099e-07
3.77129e-08
-4.88497e-07
2.33978e-08
-4.96948e-07
8.45143e-09
-4.90172e-07
-6.77631e-09
-4.68244e-07
-2.19282e-08
-4.31613e-07
-3.66314e-08
-3.81128e-07
-5.0485e-08
-3.18108e-07
-6.30194e-08
-2.44568e-07
-7.35405e-08
-1.63967e-07
-8.06009e-08
-8.36033e-08
-8.03635e-08
-2.00754e-08
-6.35278e-08
-2.00756e-08
-6.2967e-08
8.25901e-08
-1.92786e-07
1.92121e-07
-3.47997e-07
2.34251e-07
-5.03832e-07
2.35335e-07
-6.47307e-07
2.16382e-07
-7.71494e-07
1.87161e-07
-8.72164e-07
1.5171e-07
-9.46442e-07
1.11991e-07
-9.92353e-07
6.93084e-08
-1.00868e-06
2.47756e-08
-9.94903e-07
-2.05499e-08
-9.51227e-07
-6.56044e-08
-8.78585e-07
-1.09273e-07
-7.78736e-07
-1.50334e-07
-6.54443e-07
-1.87312e-07
-5.09959e-07
-2.18025e-07
-3.52404e-07
-2.38156e-07
-1.9516e-07
-2.37608e-07
-6.36403e-08
-1.95047e-07
-8.37157e-08
-8.44857e-08
1.67076e-07
-2.50099e-07
3.57735e-07
-4.43765e-07
4.27917e-07
-6.36611e-07
4.28181e-07
-8.1363e-07
3.93401e-07
-9.6661e-07
3.40141e-07
-1.09046e-06
2.75557e-07
-1.18172e-06
2.03251e-07
-1.23805e-06
1.2564e-07
-1.25802e-06
4.4747e-08
-1.24104e-06
-3.75348e-08
-1.18732e-06
-1.19318e-07
-1.09798e-06
-1.98616e-07
-9.75096e-07
-2.73218e-07
-8.21987e-07
-3.40421e-07
-6.43774e-07
-3.96238e-07
-4.48914e-07
-4.33016e-07
-2.52905e-07
-4.33616e-07
-8.53508e-08
-3.62602e-07
-1.69066e-07
-9.57208e-08
2.62797e-07
-2.83928e-07
5.45942e-07
-5.02636e-07
6.46626e-07
-7.19126e-07
6.44671e-07
-9.16996e-07
5.91271e-07
-1.08744e-06
5.10586e-07
-1.22509e-06
4.13202e-07
-1.32635e-06
3.04515e-07
-1.38884e-06
1.88132e-07
-1.41111e-06
6.70157e-08
-1.39253e-06
-5.61139e-08
-1.33329e-06
-1.78564e-07
-1.23442e-06
-2.97483e-07
-1.098e-06
-4.09635e-07
-9.27433e-07
-5.1099e-07
-7.28107e-07
-5.95564e-07
-5.09118e-07
-6.52005e-07
-2.87477e-07
-6.55257e-07
-9.67981e-08
-5.5328e-07
-2.65865e-07
-1.05818e-07
3.68614e-07
-3.15186e-07
7.5531e-07
-5.5801e-07
8.8945e-07
-7.97319e-07
8.8398e-07
-1.01502e-06
8.08968e-07
-1.20173e-06
6.97296e-07
-1.35197e-06
5.63445e-07
-1.46226e-06
4.14803e-07
-1.53034e-06
2.56217e-07
-1.55487e-06
9.15456e-08
-1.53522e-06
-7.57643e-08
-1.47145e-06
-2.42334e-07
-1.36439e-06
-4.04542e-07
-1.21586e-06
-5.58167e-07
-1.02907e-06
-6.97776e-07
-8.09502e-07
-8.15136e-07
-5.6687e-07
-8.94636e-07
-3.20075e-07
-9.02053e-07
-1.07303e-07
-7.66052e-07
-3.73168e-07
-1.18532e-07
4.87147e-07
-3.53661e-07
9.90439e-07
-6.25733e-07
1.16152e-06
-8.92564e-07
1.15081e-06
-1.13387e-06
1.05027e-06
-1.33961e-06
9.03038e-07
-1.50434e-06
7.28175e-07
-1.62488e-06
5.35341e-07
-1.69933e-06
3.30664e-07
-1.72656e-06
1.18782e-07
-1.706e-06
-9.63304e-08
-1.63749e-06
-3.10842e-07
-1.52146e-06
-5.20567e-07
-1.35922e-06
-7.20408e-07
-1.15353e-06
-9.03466e-07
-9.09756e-07
-1.05891e-06
-6.38349e-07
-1.16604e-06
-3.60683e-07
-1.17972e-06
-1.2068e-07
-1.00606e-06
-4.93848e-07
-1.35527e-07
6.22674e-07
-4.04196e-07
1.25911e-06
-7.13785e-07
1.47111e-06
-1.01536e-06
1.45238e-06
-1.28588e-06
1.3208e-06
-1.51466e-06
1.13182e-06
-1.69655e-06
9.10062e-07
-1.82903e-06
6.67822e-07
-1.91087e-06
4.12499e-07
-1.94138e-06
1.49295e-07
-1.92007e-06
-1.17639e-07
-1.8465e-06
-3.84415e-07
-1.72042e-06
-6.46647e-07
-1.54222e-06
-8.986e-07
-1.31379e-06
-1.1319e-06
-1.04001e-06
-1.33269e-06
-7.32062e-07
-1.47399e-06
-4.14461e-07
-1.49732e-06
-1.38687e-07
-1.28183e-06
-6.32535e-07
-1.58143e-07
7.80817e-07
-4.70678e-07
1.57164e-06
-8.28396e-07
1.82883e-06
-1.17346e-06
1.79745e-06
-1.47949e-06
1.62683e-06
-1.73535e-06
1.38768e-06
-1.93678e-06
1.11149e-06
-2.08252e-06
8.13565e-07
-2.17251e-06
5.02488e-07
-2.20684e-06
1.83618e-07
-2.18519e-06
-1.39284e-07
-2.1067e-06
-4.62907e-07
-1.97007e-06
-7.83274e-07
-1.7742e-06
-1.09448e-06
-1.51929e-06
-1.38681e-06
-1.20909e-06
-1.64289e-06
-8.55155e-07
-1.82792e-06
-4.85873e-07
-1.8666e-06
-1.62851e-07
-1.60485e-06
-7.95386e-07
-1.88199e-07
9.69017e-07
-5.58096e-07
1.94154e-06
-9.77157e-07
2.24789e-06
-1.37573e-06
2.19602e-06
-1.72359e-06
1.97469e-06
-2.00985e-06
1.67394e-06
-2.23213e-06
1.33377e-06
-2.39145e-06
9.72883e-07
-2.48969e-06
6.00724e-07
-2.52819e-06
2.22119e-07
-2.50702e-06
-1.60451e-07
-2.4247e-06
-5.45222e-07
-2.27838e-06
-9.29599e-07
-2.06452e-06
-1.30833e-06
-1.7805e-06
-1.67084e-06
-1.42754e-06
-1.99585e-06
-1.01675e-06
-2.23872e-06
-5.80914e-07
-2.30243e-06
-1.95335e-07
-1.99043e-06
-9.90721e-07
-2.28656e-07
1.19767e-06
-6.74114e-07
2.387e-06
-1.17111e-06
2.74489e-06
-1.63432e-06
2.65923e-06
-2.02961e-06
2.36997e-06
-2.34778e-06
1.99212e-06
-2.59015e-06
1.57614e-06
-2.76156e-06
1.14429e-06
-2.86697e-06
7.06136e-07
-2.90969e-06
2.64831e-07
-2.8904e-06
-1.79735e-07
-2.80686e-06
-6.28768e-07
-2.65394e-06
-1.08252e-06
-2.42446e-06
-1.53781e-06
-2.11106e-06
-1.98424e-06
-1.71018e-06
-2.39672e-06
-1.23044e-06
-2.71846e-06
-7.09059e-07
-2.82382e-06
-2.39757e-07
-2.45973e-06
-1.23048e-06
-2.84682e-07
1.48236e-06
-8.31256e-07
2.93357e-06
-1.42719e-06
3.34082e-06
-1.9667e-06
3.19873e-06
-2.41275e-06
2.81603e-06
-2.76086e-06
2.34023e-06
-3.01897e-06
1.83425e-06
-3.19805e-06
1.32337e-06
-3.30769e-06
8.15777e-07
-3.35405e-06
3.11189e-07
-3.33883e-06
-1.94952e-07
-3.25885e-06
-7.08752e-07
-3.10596e-06
-1.2354e-06
-2.86771e-06
-1.77606e-06
-2.52928e-06
-2.32268e-06
-2.07854e-06
-2.84746e-06
-1.51752e-06
-3.27948e-06
-8.86184e-07
-3.45516e-06
-3.0263e-07
-3.04328e-06
-1.53311e-06
-3.65768e-07
1.84812e-06
-1.05065e-06
3.61846e-06
-1.7718e-06
4.06197e-06
-2.39789e-06
3.82482e-06
-2.89287e-06
3.31101e-06
-3.26254e-06
2.7099e-06
-3.52614e-06
2.09785e-06
-3.70392e-06
1.50114e-06
-3.81199e-06
9.23851e-07
-3.86042e-06
3.59617e-07
-3.85239e-06
-2.02981e-07
-3.78377e-06
-7.77369e-07
-3.64274e-06
-1.37644e-06
-3.40974e-06
-2.00906e-06
-3.05893e-06
-2.67348e-06
-2.56367e-06
-3.34272e-06
-1.91165e-06
-3.93149e-06
-1.13974e-06
-4.22707e-06
-3.96332e-07
-3.78669e-06
-1.92944e-06
-4.90031e-07
2.33815e-06
-1.36836e-06
4.49679e-06
-2.24538e-06
4.93899e-06
-2.96201e-06
4.54145e-06
-3.49313e-06
3.84213e-06
-3.86478e-06
3.08155e-06
-4.11431e-06
2.34738e-06
-4.27507e-06
1.6619e-06
-4.37165e-06
1.02044e-06
-4.41894e-06
4.06903e-07
-4.42211e-06
-1.99815e-07
-4.37637e-06
-8.23108e-07
-4.26603e-06
-1.48677e-06
-4.06311e-06
-2.21198e-06
-3.72673e-06
-3.00986e-06
-3.20731e-06
-3.86214e-06
-2.46452e-06
-4.67428e-06
-1.51728e-06
-5.17431e-06
-5.45212e-07
-4.75876e-06
-2.47465e-06
-6.92245e-07
3.0304e-06
-1.84364e-06
5.64818e-06
-2.90398e-06
5.99933e-06
-3.69637e-06
5.33384e-06
-4.22883e-06
4.37459e-06
-4.56387e-06
3.41659e-06
-4.76561e-06
2.54912e-06
-4.88418e-06
1.78047e-06
-4.95367e-06
1.08992e-06
-4.99398e-06
4.47213e-07
-5.0126e-06
-1.81191e-07
-5.00491e-06
-8.30799e-07
-4.95244e-06
-1.53923e-06
-4.8191e-06
-2.34533e-06
-4.54629e-06
-3.28267e-06
-4.05169e-06
-4.35674e-06
-3.24544e-06
-5.48054e-06
-2.09617e-06
-6.32358e-06
-7.96329e-07
-6.0586e-06
-3.27098e-06
-1.03468e-06
4.06508e-06
-2.55922e-06
7.17273e-06
-3.79866e-06
7.23877e-06
-4.60415e-06
6.13933e-06
-5.06058e-06
4.83102e-06
-5.28933e-06
3.64533e-06
-5.38929e-06
2.64908e-06
-5.42806e-06
1.81924e-06
-5.44748e-06
1.10935e-06
-5.47083e-06
4.70563e-07
-5.50754e-06
-1.44477e-07
-5.5546e-06
-7.83745e-07
-5.59406e-06
-1.49978e-06
-5.58606e-06
-2.35332e-06
-5.45684e-06
-3.41189e-06
-5.08522e-06
-4.72836e-06
-4.30502e-06
-6.26074e-06
-2.97497e-06
-7.65363e-06
-1.23021e-06
-7.80336e-06
-4.50119e-06
-1.60433e-06
5.66941e-06
-3.5667e-06
9.13509e-06
-4.86672e-06
8.53879e-06
-5.51342e-06
6.78603e-06
-5.73962e-06
5.05722e-06
-5.74586e-06
3.65158e-06
-5.66431e-06
2.56753e-06
-5.57192e-06
1.72685e-06
-5.51035e-06
1.04777e-06
-5.50088e-06
4.61095e-07
-5.55293e-06
-9.24223e-08
-5.66687e-06
-6.69807e-07
-5.83142e-06
-1.33523e-06
-6.01393e-06
-2.1708e-06
-6.13994e-06
-3.28588e-06
-6.05994e-06
-4.80836e-06
-5.51628e-06
-6.8044e-06
-4.17421e-06
-8.9957e-06
-1.93994e-06
-1.00376e-05
-6.44113e-06
-2.43414e-06
8.10355e-06
-4.63782e-06
1.13388e-05
-5.56933e-06
9.4703e-06
-5.67182e-06
6.88853e-06
-5.39842e-06
4.78382e-06
-5.0139e-06
3.26705e-06
-4.65179e-06
2.20542e-06
-4.37123e-06
1.44629e-06
-4.1952e-06
8.71738e-07
-4.13234e-06
3.98241e-07
-4.18748e-06
-3.72875e-08
-4.36538e-06
-4.91904e-07
-4.66937e-06
-1.03124e-06
-5.09231e-06
-1.74787e-06
-5.59232e-06
-2.78587e-06
-6.04049e-06
-4.36019e-06
-6.13084e-06
-6.71405e-06
-5.2859e-06
-9.84064e-06
-2.88427e-06
-1.24393e-05
-9.32541e-06
-3.18426e-06
1.12878e-05
-4.51338e-06
1.26679e-05
-3.9971e-06
8.95402e-06
-2.8841e-06
5.77552e-06
-1.76573e-06
3.66546e-06
-8.33834e-07
2.33516e-06
-1.28142e-07
1.49972e-06
3.63784e-07
9.54364e-07
6.65348e-07
5.70174e-07
7.94159e-07
2.6943e-07
7.56111e-07
7.60993e-10
5.43105e-07
-2.78898e-07
1.3178e-07
-6.19913e-07
-5.15362e-07
-1.10073e-06
-1.43822e-06
-1.86301e-06
-2.63371e-06
-3.1647e-06
-3.92664e-06
-5.42113e-06
-4.67053e-06
-9.09675e-06
-3.44418e-06
-1.36656e-05
-1.27696e-05
-1.81987e-06
1.31077e-05
1.01293e-06
9.83509e-06
4.62334e-06
5.34361e-06
7.46548e-06
2.93338e-06
9.46712e-06
1.66382e-06
1.08321e-05
9.70196e-07
1.17473e-05
5.84513e-07
1.23434e-05
3.58293e-07
1.27021e-05
2.11397e-07
1.28691e-05
1.0247e-07
1.28618e-05
8.06416e-09
1.26725e-05
-8.95949e-08
1.2264e-05
-2.11427e-07
1.15568e-05
-3.9352e-07
1.04056e-05
-7.11782e-07
8.57721e-06
-1.33633e-06
5.79591e-06
-2.63983e-06
2.05777e-06
-5.35861e-06
-1.19614e-06
-1.04117e-05
-1.39657e-05
1.31077e-05
2.29428e-05
2.82864e-05
3.12198e-05
3.28836e-05
3.38538e-05
3.44383e-05
3.47966e-05
3.5008e-05
3.51104e-05
3.51185e-05
3.50289e-05
3.48175e-05
3.4424e-05
3.37122e-05
3.23759e-05
2.9736e-05
2.43774e-05
1.39657e-05
)
;

boundaryField
{
    movingWall
    {
        type            calculated;
        value           uniform 0;
    }
    fixedWalls
    {
        type            calculated;
        value           uniform 0;
    }
    frontAndBack
    {
        type            empty;
        value           nonuniform 0();
    }
}


// ************************************************************************* //
