/*--------------------------------*- C++ -*----------------------------------*\
  =========                 |
  \\      /  F ield         | OpenFOAM: The Open Source CFD Toolbox
   \\    /   O peration     | Website:  https://openfoam.org
    \\  /    A nd           | Version:  6
     \\/     M anipulation  |
\*---------------------------------------------------------------------------*/
FoamFile
{
    version     2.0;
    format      ascii;
    class       volVectorField;
    location    "0.01";
    object      U;
}
// * * * * * * * * * * * * * * * * * * * * * * * * * * * * * * * * * * * * * //

dimensions      [0 1 -1 0 0 0 0];

internalField   nonuniform List<vector> 
400
(
(-0.000146861 0.000139682 0)
(-0.000930322 0.000510689 0)
(-0.00239424 0.000661862 0)
(-0.00402535 0.000667207 0)
(-0.00557001 0.000611093 0)
(-0.00693846 0.000527488 0)
(-0.00808484 0.000427664 0)
(-0.00897679 0.000316395 0)
(-0.00959085 0.000196868 0)
(-0.00991094 7.19748e-05 0)
(-0.00992797 -5.53807e-05 0)
(-0.00963986 -0.000182205 0)
(-0.00905177 -0.00030538 0)
(-0.00817649 -0.000421607 0)
(-0.00703533 -0.00052712 0)
(-0.00566008 -0.000616412 0)
(-0.00409771 -0.000677367 0)
(-0.00244011 -0.000675244 0)
(-0.000949894 -0.000525184 0)
(-0.000148124 -0.000146517 0)
(-0.000524524 0.000923127 0)
(-0.00238415 0.00234456 0)
(-0.00534203 0.00290383 0)
(-0.00854869 0.00292182 0)
(-0.0115831 0.00268497 0)
(-0.0142803 0.00232182 0)
(-0.0165429 0.00188254 0)
(-0.0183022 0.0013907 0)
(-0.0195105 0.000862005 0)
(-0.0201363 0.000310046 0)
(-0.0201623 -0.000252058 0)
(-0.0195853 -0.000811015 0)
(-0.0184166 -0.00135293 0)
(-0.0166823 -0.00186273 0)
(-0.0144271 -0.0023225 0)
(-0.0117185 -0.00270577 0)
(-0.00865587 -0.00295878 0)
(-0.00540935 -0.00294899 0)
(-0.002411 -0.00238618 0)
(-0.00052698 -0.000939031 0)
(-0.000710234 0.00242865 0)
(-0.00312986 0.0053631 0)
(-0.00686283 0.00646723 0)
(-0.0108476 0.00648525 0)
(-0.014596 0.00596283 0)
(-0.0179211 0.0051581 0)
(-0.0207066 0.00418079 0)
(-0.0228698 0.00308538 0)
(-0.0243535 0.00190842 0)
(-0.0251206 0.000680762 0)
(-0.0251511 -0.000568422 0)
(-0.0244412 -0.00180992 0)
(-0.0230038 -0.00301308 0)
(-0.0208701 -0.00414409 0)
(-0.018093 -0.00516199 0)
(-0.0147543 -0.00600634 0)
(-0.0109725 -0.00655987 0)
(-0.00694178 -0.00655565 0)
(-0.00316376 -0.00543935 0)
(-0.000716126 -0.00245989 0)
(-0.000801999 0.00425715 0)
(-0.00355136 0.00894858 0)
(-0.00778427 0.0106435 0)
(-0.0122719 0.010631 0)
(-0.0164699 0.00976122 0)
(-0.0201798 0.00843645 0)
(-0.023279 0.00683231 0)
(-0.0256806 0.00503798 0)
(-0.0273261 0.00311341 0)
(-0.0281779 0.00110851 0)
(-0.0282155 -0.000930373 0)
(-0.0274345 -0.00295715 0)
(-0.0258467 -0.00492322 0)
(-0.0234822 -0.00677411 0)
(-0.0203943 -0.00844288 0)
(-0.016668 -0.00983074 0)
(-0.0124287 -0.0107498 0)
(-0.00788402 -0.0107832 0)
(-0.00359492 -0.00906733 0)
(-0.000810561 -0.0043061 0)
(-0.000883285 0.00627088 0)
(-0.00393635 0.0129177 0)
(-0.00864487 0.0152499 0)
(-0.0136182 0.0151809 0)
(-0.0182475 0.0139111 0)
(-0.0223195 0.0120047 0)
(-0.0257072 0.00970977 0)
(-0.0283244 0.00715311 0)
(-0.0301155 0.00441903 0)
(-0.0310455 0.00157603 0)
(-0.0310952 -0.00131358 0)
(-0.030259 -0.00418836 0)
(-0.028545 -0.00698296 0)
(-0.0259784 -0.0096225 0)
(-0.0226076 -0.0120127 0)
(-0.0185155 -0.0140126 0)
(-0.0138321 -0.0153559 0)
(-0.00878205 -0.0154564 0)
(-0.00399665 -0.0130934 0)
(-0.000895524 -0.00634481 0)
(-0.000988004 0.00850122 0)
(-0.00441531 0.0173351 0)
(-0.0097007 0.020368 0)
(-0.0152618 0.0202144 0)
(-0.0204084 0.0184787 0)
(-0.0249075 0.0159127 0)
(-0.0286293 0.0128482 0)
(-0.0314924 0.00945409 0)
(-0.0334482 0.00584006 0)
(-0.0344682 0.00209171 0)
(-0.0345361 -0.00171561 0)
(-0.0336446 -0.00550852 0)
(-0.0317957 -0.00920778 0)
(-0.0290046 -0.0127195 0)
(-0.0253091 -0.0159206 0)
(-0.0207853 -0.0186223 0)
(-0.0155654 -0.0204658 0)
(-0.00989725 -0.020667 0)
(-0.0045021 -0.0175909 0)
(-0.00100575 -0.00861047 0)
(-0.00113024 0.0110236 0)
(-0.0050504 0.0223359 0)
(-0.011081 0.0261445 0)
(-0.0173905 0.0258641 0)
(-0.0231839 0.0235712 0)
(-0.0282053 0.0202403 0)
(-0.0323265 0.0163032 0)
(-0.0354774 0.0119777 0)
(-0.0376239 0.00739918 0)
(-0.0387493 0.00266724 0)
(-0.0388429 -0.00213493 0)
(-0.0378955 -0.00692799 0)
(-0.0358988 -0.0116242 0)
(-0.0328517 -0.0161139 0)
(-0.0287725 -0.0202443 0)
(-0.0237219 -0.0237705 0)
(-0.0178287 -0.0262218 0)
(-0.0113675 -0.0265753 0)
(-0.00517752 -0.0227075 0)
(-0.00115622 -0.0111843 0)
(-0.00132148 0.0139366 0)
(-0.00589217 0.0281003 0)
(-0.0128891 0.0327682 0)
(-0.020148 0.0322908 0)
(-0.026739 0.0293097 0)
(-0.032384 0.0250708 0)
(-0.0369662 0.0201284 0)
(-0.0404394 0.0147565 0)
(-0.0427956 0.00911578 0)
(-0.0440384 0.00331408 0)
(-0.0441672 -0.00256643 0)
(-0.0431704 -0.00845036 0)
(-0.0410246 -0.0142508 0)
(-0.0377022 -0.0198488 0)
(-0.0331883 -0.0250626 0)
(-0.0275119 -0.0295819 0)
(-0.0207863 -0.0327969 0)
(-0.0133116 -0.0333885 0)
(-0.00608089 -0.0286418 0)
(-0.00135999 -0.0141733 0)
(-0.00157809 0.017368 0)
(-0.00700777 0.0348621 0)
(-0.0152548 0.0404747 0)
(-0.0237048 0.0396826 0)
(-0.0312561 0.035823 0)
(-0.0376167 0.0304815 0)
(-0.0427014 0.024364 0)
(-0.0465092 0.0178096 0)
(-0.0490765 0.0110003 0)
(-0.0504398 0.0040419 0)
(-0.0506156 -0.00299853 0)
(-0.04959 -0.0100652 0)
(-0.0473177 -0.0170872 0)
(-0.0437301 -0.0239486 0)
(-0.0387575 -0.0304435 0)
(-0.0323711 -0.0361869 0)
(-0.0246421 -0.0403944 0)
(-0.0158857 -0.0413694 0)
(-0.00729276 -0.0356558 0)
(-0.00163633 -0.0177188 0)
(-0.00192788 0.0214908 0)
(-0.00850402 0.0429309 0)
(-0.0183727 0.0495588 0)
(-0.0283023 0.0482525 0)
(-0.0369773 0.0432351 0)
(-0.0441166 0.0365263 0)
(-0.0497038 0.0290211 0)
(-0.0538179 0.0211294 0)
(-0.0565666 0.0130456 0)
(-0.0580381 0.00485571 0)
(-0.0582751 -0.00340979 0)
(-0.0572624 -0.0117381 0)
(-0.0549246 -0.0200983 0)
(-0.0511332 -0.0283986 0)
(-0.0457321 -0.0364229 0)
(-0.0385915 -0.0437064 0)
(-0.0296921 -0.0492459 0)
(-0.0193305 -0.0508518 0)
(-0.00894493 -0.0441041 0)
(-0.00201885 -0.0220162 0)
(-0.00242151 0.0265548 0)
(-0.0105623 0.052732 0)
(-0.0225521 0.0603928 0)
(-0.0342992 0.0582333 0)
(-0.0442379 0.0516442 0)
(-0.0521554 0.0432102 0)
(-0.0581701 0.0340565 0)
(-0.0624945 0.0246627 0)
(-0.0653458 0.015215 0)
(-0.0668877 0.00575142 0)
(-0.0672016 -0.00376531 0)
(-0.0662736 -0.0133988 0)
(-0.0639895 -0.0231931 0)
(-0.060138 -0.0331163 0)
(-0.0544344 -0.0429718 0)
(-0.0465817 -0.052223 0)
(-0.0363832 -0.0596016 0)
(-0.0240369 -0.0622644 0)
(-0.0112676 -0.0544865 0)
(-0.00257068 -0.0273559 0)
(-0.00315664 0.0329475 0)
(-0.0135033 0.0648744 0)
(-0.0282955 0.0734486 0)
(-0.0422332 0.0698572 0)
(-0.0534973 0.0610828 0)
(-0.0620668 0.0504455 0)
(-0.0683059 0.0393362 0)
(-0.0726378 0.0282834 0)
(-0.075438 0.0174253 0)
(-0.0769735 0.00670916 0)
(-0.0773789 -0.00401312 0)
(-0.0766462 -0.0149255 0)
(-0.0746168 -0.0261957 0)
(-0.0709745 -0.0379069 0)
(-0.0652552 -0.0499399 0)
(-0.0569012 -0.0617258 0)
(-0.0453914 -0.0716999 0)
(-0.0306532 -0.0761566 0)
(-0.0146804 -0.067538 0)
(-0.00341803 -0.0342044 0)
(-0.00432994 0.0413187 0)
(-0.0179094 0.0802591 0)
(-0.0364182 0.0893082 0)
(-0.0528824 0.0832987 0)
(-0.0653369 0.0714377 0)
(-0.0741967 0.0579783 0)
(-0.0802461 0.0445787 0)
(-0.0842213 0.0317544 0)
(-0.0867088 0.0195248 0)
(-0.088104 0.00768363 0)
(-0.0886073 -0.0040817 0)
(-0.0882246 -0.016128 0)
(-0.0867563 -0.0288077 0)
(-0.0837702 -0.0423995 0)
(-0.0785763 -0.0569627 0)
(-0.0702407 -0.0720003 0)
(-0.0576899 -0.0856804 0)
(-0.04024 -0.0932036 0)
(-0.0199635 -0.0843748 0)
(-0.00482309 -0.0433779 0)
(-0.00634026 0.0528276 0)
(-0.024823 0.100226 0)
(-0.0481617 0.108611 0)
(-0.0672185 0.0985259 0)
(-0.0802793 0.0822954 0)
(-0.0886405 0.0652675 0)
(-0.093753 0.0492743 0)
(-0.0967747 0.0346788 0)
(-0.0985403 0.0212645 0)
(-0.0995805 0.00858876 0)
(-0.100164 -0.00388457 0)
(-0.100321 -0.0167372 0)
(-0.0998336 -0.0305724 0)
(-0.0981731 -0.0459667 0)
(-0.0944142 -0.0633196 0)
(-0.0871426 -0.0824234 0)
(-0.0744297 -0.101366 0)
(-0.0543754 -0.114105 0)
(-0.0285129 -0.106672 0)
(-0.00732211 -0.0563787 0)
(-0.00994407 0.0695834 0)
(-0.0359264 0.126649 0)
(-0.0649975 0.131792 0)
(-0.0857972 0.114953 0)
(-0.0979164 0.0926555 0)
(-0.104246 0.0712934 0)
(-0.107173 0.0525731 0)
(-0.108331 0.0364384 0)
(-0.108778 0.0222629 0)
(-0.109139 0.00927141 0)
(-0.109727 -0.00334412 0)
(-0.110609 -0.0164228 0)
(-0.111592 -0.0308671 0)
(-0.112139 -0.0476586 0)
(-0.111174 -0.0677572 0)
(-0.106809 -0.0916294 0)
(-0.095983 -0.117782 0)
(-0.0746873 -0.139144 0)
(-0.0424428 -0.136676 0)
(-0.0118913 -0.0759373 0)
(-0.0162848 0.0954077 0)
(-0.0530707 0.161644 0)
(-0.0869445 0.158184 0)
(-0.10616 0.130619 0)
(-0.113887 0.100385 0)
(-0.115459 0.0742558 0)
(-0.114272 0.0531413 0)
(-0.112296 0.0361309 0)
(-0.110632 0.0219698 0)
(-0.109863 0.00947178 0)
(-0.110271 -0.00244994 0)
(-0.111954 -0.014871 0)
(-0.114827 -0.0289845 0)
(-0.118509 -0.046236 0)
(-0.122048 -0.0683749 0)
(-0.123384 -0.0970916 0)
(-0.118394 -0.132296 0)
(-0.100134 -0.167043 0)
(-0.0634147 -0.176696 0)
(-0.0197647 -0.106916 0)
(-0.0259647 0.13708 0)
(-0.0750299 0.205636 0)
(-0.106183 0.18317 0)
(-0.114877 0.140141 0)
(-0.111616 0.101134 0)
(-0.104211 0.0711176 0)
(-0.096381 0.0490194 0)
(-0.0898084 0.03255 0)
(-0.0851902 0.0196692 0)
(-0.0827812 0.0087983 0)
(-0.0826889 -0.00133622 0)
(-0.0850054 -0.0119265 0)
(-0.0898318 -0.0243314 0)
(-0.0971934 -0.0403755 0)
(-0.106756 -0.0626776 0)
(-0.117113 -0.0946844 0)
(-0.1242 -0.139205 0)
(-0.118715 -0.192442 0)
(-0.08733 -0.226995 0)
(-0.0305013 -0.157673 0)
(-0.0338902 0.202111 0)
(-0.0858534 0.249092 0)
(-0.0898524 0.191667 0)
(-0.0696304 0.131724 0)
(-0.0458338 0.0876022 0)
(-0.0250243 0.0578184 0)
(-0.00866309 0.0380692 0)
(0.00321605 0.0245838 0)
(0.0110555 0.0147474 0)
(0.0153037 0.006855 0)
(0.0162087 -0.000299629 0)
(0.013753 -0.00777203 0)
(0.00762031 -0.0167943 0)
(-0.00282512 -0.029203 0)
(-0.0184501 -0.0480871 0)
(-0.0398875 -0.0785498 0)
(-0.0661771 -0.127593 0)
(-0.0905218 -0.199661 0)
(-0.0901914 -0.274817 0)
(-0.0341982 -0.233398 0)
(-0.00162873 0.262907 0)
(-0.0160838 0.2494 0)
(0.0537792 0.156624 0)
(0.124094 0.0930514 0)
(0.172627 0.0556383 0)
(0.205215 0.0338444 0)
(0.227322 0.0210186 0)
(0.242026 0.0131151 0)
(0.251324 0.0078036 0)
(0.25645 0.00378754 0)
(0.258017 0.000275881 0)
(0.256119 -0.00335923 0)
(0.25033 -0.007855 0)
(0.239529 -0.0144288 0)
(0.221581 -0.0254805 0)
(0.192829 -0.0459227 0)
(0.146896 -0.0851639 0)
(0.0765249 -0.157628 0)
(0.00432657 -0.264957 0)
(0.0166599 -0.286033 0)
(0.29484 0.143547 0)
(0.377583 0.118886 0)
(0.510449 0.0661328 0)
(0.59945 0.034836 0)
(0.644909 0.0186482 0)
(0.669413 0.010287 0)
(0.68403 0.00591222 0)
(0.693049 0.00351408 0)
(0.698535 0.00206296 0)
(0.701568 0.00105263 0)
(0.702641 0.000218655 0)
(0.701856 -0.000618521 0)
(0.698954 -0.00165636 0)
(0.693146 -0.00323903 0)
(0.682637 -0.00612882 0)
(0.663435 -0.0121517 0)
(0.625182 -0.0256364 0)
(0.542684 -0.0558757 0)
(0.405718 -0.113414 0)
(0.312631 -0.145806 0)
)
;

boundaryField
{
    movingWall
    {
        type            fixedValue;
        value           uniform (1 0 0);
    }
    fixedWalls
    {
        type            noSlip;
    }
    frontAndBack
    {
        type            empty;
    }
}


// ************************************************************************* //
