/*--------------------------------*- C++ -*----------------------------------*\
  =========                 |
  \\      /  F ield         | OpenFOAM: The Open Source CFD Toolbox
   \\    /   O peration     | Website:  https://openfoam.org
    \\  /    A nd           | Version:  6
     \\/     M anipulation  |
\*---------------------------------------------------------------------------*/
FoamFile
{
    version     2.0;
    format      ascii;
    class       surfaceScalarField;
    location    "0.055";
    object      phi;
}
// * * * * * * * * * * * * * * * * * * * * * * * * * * * * * * * * * * * * * //

dimensions      [0 3 -1 0 0 0 0];

internalField   nonuniform List<scalar> 
760
(
1.47883e-08
-1.48115e-08
-2.07591e-08
3.55474e-08
-1.12654e-07
9.18948e-08
-2.44695e-07
1.32041e-07
-3.96781e-07
1.52086e-07
-5.49542e-07
1.52761e-07
-6.8622e-07
1.36678e-07
-7.93528e-07
1.07308e-07
-8.61919e-07
6.83908e-08
-8.85617e-07
2.36982e-08
-8.62607e-07
-2.30105e-08
-7.94653e-07
-6.79534e-08
-6.87375e-07
-1.07279e-07
-5.50316e-07
-1.37059e-07
-3.96927e-07
-1.53389e-07
-2.44242e-07
-1.52686e-07
-1.11899e-07
-1.32343e-07
-2.01235e-08
-9.17753e-08
1.50377e-08
-3.51613e-08
1.50378e-08
-3.28949e-08
1.80834e-08
-1.77519e-07
1.80172e-07
-4.30922e-07
3.45298e-07
-7.62977e-07
4.64096e-07
-1.13354e-06
5.22648e-07
-1.50132e-06
5.20542e-07
-1.82895e-06
4.64307e-07
-2.0858e-06
3.64161e-07
-2.24938e-06
2.31972e-07
-2.30593e-06
8.02442e-08
-2.25066e-06
-7.82802e-08
-2.0879e-06
-2.30715e-07
-1.83111e-06
-3.6406e-07
-1.5028e-06
-4.65374e-07
-1.13386e-06
-5.22325e-07
-7.62167e-07
-5.24382e-07
-4.29496e-07
-4.65015e-07
-1.76239e-07
-3.45032e-07
-3.23206e-08
-1.79079e-07
-1.72829e-08
-9.03921e-08
1.08475e-07
-3.53233e-07
4.43013e-07
-7.60924e-07
7.52989e-07
-1.26736e-06
9.7053e-07
-1.81742e-06
1.07271e-06
-2.35532e-06
1.05844e-06
-2.83048e-06
9.39461e-07
-3.20117e-06
7.34857e-07
-3.43661e-06
4.67412e-07
-3.51789e-06
1.61524e-07
-3.43845e-06
-1.57726e-07
-3.20424e-06
-4.64924e-07
-2.83377e-06
-7.34526e-07
-2.3578e-06
-9.41346e-07
-1.81837e-06
-1.06175e-06
-1.2667e-06
-1.07605e-06
-7.5926e-07
-9.7246e-07
-3.51565e-07
-7.52727e-07
-8.95768e-08
-4.41067e-07
-1.0686e-07
-1.42934e-07
2.51409e-07
-5.21506e-07
8.21584e-07
-1.07902e-06
1.3105e-06
-1.74915e-06
1.64067e-06
-2.46147e-06
1.78502e-06
-3.148e-06
1.74498e-06
-3.74855e-06
1.54001e-06
-4.21411e-06
1.20042e-06
-4.50875e-06
7.62048e-07
-4.61048e-06
2.63254e-07
-4.51165e-06
-2.56556e-07
-4.2191e-06
-7.57471e-07
-3.75425e-06
-1.19938e-06
-3.1529e-06
-1.5427e-06
-2.46441e-06
-1.75024e-06
-1.74977e-06
-1.7907e-06
-1.07784e-06
-1.64438e-06
-5.19792e-07
-1.31078e-06
-1.41954e-07
-8.18906e-07
-2.48813e-07
-1.91309e-07
4.42718e-07
-6.82446e-07
1.31272e-06
-1.38721e-06
2.01526e-06
-2.21636e-06
2.46982e-06
-3.08274e-06
2.6514e-06
-3.90674e-06
2.56897e-06
-4.62039e-06
2.25367e-06
-5.1698e-06
1.74984e-06
-5.51618e-06
1.10842e-06
-5.63601e-06
3.83087e-07
-5.52107e-06
-3.71494e-07
-5.17845e-06
-1.10009e-06
-4.63081e-06
-1.74702e-06
-3.91663e-06
-2.25688e-06
-3.09014e-06
-2.57672e-06
-2.22026e-06
-2.66058e-06
-1.38789e-06
-2.47675e-06
-6.81373e-07
-2.0173e-06
-1.90339e-07
-1.30994e-06
-4.39152e-07
-2.38437e-07
6.81155e-07
-8.41977e-07
1.91626e-06
-1.69425e-06
2.86753e-06
-2.68095e-06
3.45653e-06
-3.69686e-06
3.66731e-06
-4.65087e-06
3.52298e-06
-5.46871e-06
3.07151e-06
-6.09369e-06
2.37481e-06
-6.48614e-06
1.50087e-06
-6.62246e-06
5.1941e-07
-6.49431e-06
-4.99641e-07
-6.10842e-06
-1.48598e-06
-5.48711e-06
-2.36833e-06
-4.66943e-06
-3.07456e-06
-3.71233e-06
-3.53382e-06
-2.69122e-06
-3.68169e-06
-1.69898e-06
-3.46899e-06
-8.4271e-07
-2.87357e-06
-2.37816e-07
-1.91483e-06
-6.76968e-07
-2.8734e-07
9.68496e-07
-1.00703e-06
2.63595e-06
-2.00976e-06
3.87027e-06
-3.15356e-06
4.60032e-06
-4.31405e-06
4.82781e-06
-5.38935e-06
4.59827e-06
-6.30083e-06
3.98299e-06
-6.99157e-06
3.06554e-06
-7.42343e-06
1.93273e-06
-7.57434e-06
6.70326e-07
-7.43639e-06
-6.37589e-07
-7.01526e-06
-1.90711e-06
-6.33118e-06
-3.05242e-06
-5.42119e-06
-3.98454e-06
-4.34228e-06
-4.61273e-06
-3.17433e-06
-4.84964e-06
-2.0216e-06
-4.62172e-06
-1.01129e-06
-3.88388e-06
-2.87605e-07
-2.63852e-06
-9.64572e-07
-3.40858e-07
1.30935e-06
-1.18415e-06
3.47923e-06
-2.34179e-06
5.02791e-06
-3.64049e-06
5.89903e-06
-4.93612e-06
6.12344e-06
-6.11784e-06
5.77998e-06
-7.10606e-06
4.97122e-06
-7.84734e-06
3.80682e-06
-8.30835e-06
2.39374e-06
-8.4707e-06
8.32675e-07
-8.32763e-06
-7.80656e-07
-7.88297e-06
-2.35177e-06
-7.15256e-06
-3.78282e-06
-6.16806e-06
-4.96904e-06
-4.98254e-06
-5.79825e-06
-3.67681e-06
-6.15538e-06
-2.36464e-06
-5.93388e-06
-1.19424e-06
-5.05428e-06
-3.42767e-07
-3.48999e-06
-1.30734e-06
-4.01799e-07
1.71115e-06
-1.37929e-06
4.45672e-06
-2.69574e-06
6.34436e-06
-4.14169e-06
7.34497e-06
-5.55349e-06
7.53525e-06
-6.81526e-06
7.04176e-06
-7.85199e-06
6.00794e-06
-8.61923e-06
4.57406e-06
-9.09292e-06
2.86743e-06
-9.26127e-06
1.00103e-06
-9.11969e-06
-9.22239e-07
-8.66918e-06
-2.80229e-06
-7.91828e-06
-4.53371e-06
-6.88862e-06
-5.99871e-06
-5.62353e-06
-7.06334e-06
-4.19896e-06
-7.57994e-06
-2.73412e-06
-7.39873e-06
-1.39803e-06
-6.39037e-06
-4.0634e-07
-4.48168e-06
-1.71368e-06
-4.73502e-07
2.18466e-06
-1.59834e-06
5.58156e-06
-3.07391e-06
7.81993e-06
-4.64854e-06
8.9196e-06
-6.1415e-06
9.02821e-06
-7.43902e-06
8.33927e-06
-8.47915e-06
7.04807e-06
-9.23424e-06
5.32916e-06
-9.69539e-06
3.32858e-06
-9.86099e-06
1.16663e-06
-9.72992e-06
-1.05331e-06
-9.29932e-06
-3.23289e-06
-8.56696e-06
-5.26607e-06
-7.53846e-06
-7.02721e-06
-6.23936e-06
-8.36244e-06
-4.73167e-06
-9.08763e-06
-3.13239e-06
-8.99802e-06
-1.6289e-06
-7.89386e-06
-4.81883e-07
-5.6287e-06
-2.19556e-06
-5.60859e-07
2.74551e-06
-1.84817e-06
6.86887e-06
-3.47466e-06
9.44643e-06
-5.1406e-06
1.05855e-05
-6.65489e-06
1.05425e-05
-7.91804e-06
9.60242e-06
-8.89368e-06
8.02371e-06
-9.58101e-06
6.0165e-06
-9.99326e-06
3.74083e-06
-1.01431e-05
1.31642e-06
-1.00342e-05
-1.16215e-06
-9.65907e-06
-3.60803e-06
-9.00098e-06
-5.92416e-06
-8.04268e-06
-7.98552e-06
-6.78152e-06
-9.6236e-06
-5.25238e-06
-1.06168e-05
-3.55695e-06
-1.06934e-05
-1.89367e-06
-9.55713e-06
-5.74451e-07
-6.94792e-06
-2.77001e-06
-6.72016e-07
3.41753e-06
-2.13765e-06
8.3345e-06
-3.89009e-06
1.11989e-05
-5.57912e-06
1.22746e-05
-7.01847e-06
1.19818e-05
-8.14262e-06
1.07266e-05
-8.9576e-06
8.8387e-06
-9.50122e-06
6.56012e-06
-9.81581e-06
4.05541e-06
-9.93184e-06
1.43245e-06
-9.85945e-06
-1.23454e-06
-9.58564e-06
-3.88185e-06
-9.07642e-06
-6.43338e-06
-8.28504e-06
-8.7769e-06
-7.1688e-06
-1.07398e-05
-5.71781e-06
-1.20678e-05
-3.99741e-06
-1.24138e-05
-2.20049e-06
-1.13541e-05
-6.92242e-07
-8.45616e-06
-3.46226e-06
-8.21122e-07
4.23865e-06
-2.47774e-06
9.99112e-06
-4.29907e-06
1.30202e-05
-5.89392e-06
1.38694e-05
-7.11134e-06
1.31993e-05
-7.94925e-06
1.15645e-05
-8.47647e-06
9.36592e-06
-8.78048e-06
6.86412e-06
-8.93745e-06
4.21238e-06
-8.99729e-06
1.49229e-06
-8.97708e-06
-1.25474e-06
-8.85889e-06
-4.00004e-06
-8.59081e-06
-6.70146e-06
-8.09267e-06
-9.27504e-06
-7.27094e-06
-1.15616e-05
-6.05e-06
-1.32887e-05
-4.42766e-06
-1.40362e-05
-2.55832e-06
-1.32234e-05
-8.49226e-07
-1.01653e-05
-4.31148e-06
-1.03216e-06
5.27081e-06
-2.87693e-06
1.18359e-05
-4.64932e-06
1.47926e-05
-5.95705e-06
1.51771e-05
-6.73982e-06
1.3982e-05
-7.09858e-06
1.19232e-05
-7.18459e-06
9.45193e-06
-7.14045e-06
6.81998e-06
-7.07469e-06
4.14663e-06
-7.05381e-06
1.4714e-06
-7.10079e-06
-1.20776e-06
-7.19474e-06
-3.90609e-06
-7.26977e-06
-6.62643e-06
-7.21504e-06
-9.32977e-06
-6.88183e-06
-1.18948e-05
-6.10937e-06
-1.40612e-05
-4.7869e-06
-1.53586e-05
-2.97157e-06
-1.50387e-05
-1.06873e-06
-1.20681e-05
-5.38021e-06
-1.34098e-06
6.61179e-06
-3.32079e-06
1.38157e-05
-4.81354e-06
1.62853e-05
-5.53137e-06
1.5895e-05
-5.59324e-06
1.40439e-05
-5.2455e-06
1.15755e-05
-4.73017e-06
8.9366e-06
-4.23615e-06
6.32596e-06
-3.89124e-06
3.80171e-06
-3.7684e-06
1.34857e-06
-3.89298e-06
-1.08319e-06
-4.24503e-06
-3.55403e-06
-4.75551e-06
-6.11594e-06
-5.29745e-06
-8.78783e-06
-5.67777e-06
-1.15145e-05
-5.64412e-06
-1.40948e-05
-4.93498e-06
-1.60678e-05
-3.41822e-06
-1.65555e-05
-1.38478e-06
-1.41015e-05
-6.76499e-06
-1.77967e-06
8.39146e-06
-3.70223e-06
1.57383e-05
-4.48849e-06
1.70716e-05
-4.17622e-06
1.55827e-05
-3.17761e-06
1.30453e-05
-1.90483e-06
1.03027e-05
-6.67308e-07
7.69908e-06
3.34079e-07
5.32458e-06
9.81739e-07
3.15405e-06
1.21493e-06
1.11538e-06
1.01267e-06
-8.80925e-07
3.88165e-07
-2.92953e-06
-6.04827e-07
-5.12295e-06
-1.85359e-06
-7.53907e-06
-3.15763e-06
-1.02104e-05
-4.20029e-06
-1.30521e-05
-4.55234e-06
-1.57158e-05
-3.7781e-06
-1.73297e-05
-1.82482e-06
-1.60548e-05
-8.58981e-06
-2.29675e-06
1.06882e-05
-3.6268e-06
1.70683e-05
-2.98242e-06
1.64272e-05
-1.09035e-06
1.36906e-05
1.26874e-06
1.06862e-05
3.57404e-06
7.99744e-06
5.53109e-06
5.74203e-06
6.99453e-06
3.86113e-06
7.90144e-06
2.24715e-06
8.22764e-06
7.89173e-07
7.96491e-06
-6.18192e-07
7.11376e-06
-2.07839e-06
5.69025e-06
-3.69943e-06
3.74906e-06
-5.59788e-06
1.42896e-06
-7.8903e-06
-9.7637e-07
-1.06468e-05
-2.93481e-06
-1.37573e-05
-3.63876e-06
-1.66258e-05
-2.32673e-06
-1.73668e-05
-1.09165e-05
-2.50251e-06
1.31907e-05
-1.93609e-06
1.65019e-05
1.19328e-06
1.32979e-05
5.11733e-06
9.7666e-06
8.85284e-06
6.95067e-06
1.19938e-05
4.85648e-06
1.44175e-05
3.31835e-06
1.61216e-05
2.15699e-06
1.71401e-05
1.22865e-06
1.75033e-05
4.26022e-07
1.72213e-05
-3.362e-07
1.62794e-05
-1.13657e-06
1.46416e-05
-2.06162e-06
1.22655e-05
-3.22177e-06
9.14234e-06
-4.76711e-06
5.38387e-06
-6.88835e-06
1.39308e-06
-9.76652e-06
-1.83167e-06
-1.3401e-05
-2.48282e-06
-1.67157e-05
-1.33994e-05
-5.77735e-07
1.37685e-05
4.63785e-06
1.12863e-05
1.10742e-05
6.86146e-06
1.66513e-05
4.1896e-06
2.09802e-05
2.62167e-06
2.41682e-05
1.6685e-06
2.64191e-05
1.06746e-06
2.7912e-05
6.64074e-07
2.8773e-05
3.67696e-07
2.90747e-05
1.24295e-07
2.8841e-05
-1.025e-07
2.80484e-05
-3.43918e-07
2.66231e-05
-6.36333e-07
2.44353e-05
-1.03402e-06
2.12972e-05
-1.629e-06
1.69897e-05
-2.58085e-06
1.13879e-05
-4.16471e-06
4.87115e-06
-6.88427e-06
-4.69141e-07
-1.13754e-05
-1.38685e-05
1.37685e-05
2.50548e-05
3.19162e-05
3.61058e-05
3.87275e-05
4.0396e-05
4.14634e-05
4.21275e-05
4.24952e-05
4.26195e-05
4.2517e-05
4.21731e-05
4.15368e-05
4.05027e-05
3.88737e-05
3.62929e-05
3.21282e-05
2.52439e-05
1.38685e-05
)
;

boundaryField
{
    movingWall
    {
        type            calculated;
        value           uniform 0;
    }
    fixedWalls
    {
        type            calculated;
        value           uniform 0;
    }
    frontAndBack
    {
        type            empty;
        value           nonuniform 0();
    }
}


// ************************************************************************* //
