/*--------------------------------*- C++ -*----------------------------------*\
  =========                 |
  \\      /  F ield         | OpenFOAM: The Open Source CFD Toolbox
   \\    /   O peration     | Website:  https://openfoam.org
    \\  /    A nd           | Version:  6
     \\/     M anipulation  |
\*---------------------------------------------------------------------------*/
FoamFile
{
    version     2.0;
    format      ascii;
    class       surfaceScalarField;
    location    "0.02";
    object      phi;
}
// * * * * * * * * * * * * * * * * * * * * * * * * * * * * * * * * * * * * * //

dimensions      [0 3 -1 0 0 0 0];

internalField   nonuniform List<scalar> 
760
(
-3.28434e-08
3.28433e-08
-9.79906e-08
6.51472e-08
-1.68686e-07
7.06953e-08
-2.35706e-07
6.70204e-08
-2.96013e-07
6.03068e-08
-3.47888e-07
5.18745e-08
-3.8999e-07
4.21029e-08
-4.21253e-07
3.12627e-08
-4.4087e-07
1.96174e-08
-4.48303e-07
7.43243e-09
-4.4328e-07
-5.02277e-09
-4.25811e-07
-1.74696e-08
-3.96197e-07
-2.96137e-08
-3.55056e-07
-4.11406e-08
-3.03341e-07
-5.17157e-08
-2.42362e-07
-6.09789e-08
-1.7392e-07
-6.84416e-08
-1.01278e-07
-7.26421e-08
-3.40864e-08
-6.71918e-08
-3.40863e-08
-6.67421e-08
9.95854e-08
-1.77412e-07
1.75817e-07
-2.9526e-07
1.88543e-07
-4.07269e-07
1.7903e-07
-5.08153e-07
1.61191e-07
-5.94835e-07
1.38557e-07
-6.65032e-07
1.123e-07
-7.1698e-07
8.321e-08
-7.4938e-07
5.20174e-08
-7.61386e-07
1.94383e-08
-7.52597e-07
-1.38121e-08
-7.23065e-07
-4.70007e-08
-6.73324e-07
-7.93554e-08
-6.04417e-07
-1.10047e-07
-5.17951e-07
-1.38182e-07
-4.16168e-07
-1.62761e-07
-3.02257e-07
-1.82353e-07
-1.81808e-07
-1.93091e-07
-6.84396e-08
-1.8056e-07
-1.02526e-07
-7.79424e-08
1.77528e-07
-2.05314e-07
3.03189e-07
-3.39836e-07
3.23064e-07
-4.67267e-07
3.06461e-07
-5.81853e-07
2.75776e-07
-6.80173e-07
2.36877e-07
-7.59695e-07
1.91823e-07
-8.18487e-07
1.42002e-07
-8.55142e-07
8.8672e-08
-8.68746e-07
3.30424e-08
-8.58861e-07
-2.36964e-08
-8.25531e-07
-8.03313e-08
-7.69306e-07
-1.35581e-07
-6.91297e-07
-1.88056e-07
-5.93246e-07
-2.36233e-07
-4.7763e-07
-2.78378e-07
-3.47988e-07
-3.11995e-07
-2.10434e-07
-3.30644e-07
-7.9915e-08
-3.11079e-07
-1.82441e-07
-8.44131e-08
2.61941e-07
-2.23056e-07
4.41832e-07
-3.69101e-07
4.69109e-07
-5.07013e-07
4.44374e-07
-6.30704e-07
3.99467e-07
-7.36615e-07
3.42787e-07
-8.22151e-07
2.77359e-07
-8.85366e-07
2.05217e-07
-9.24861e-07
1.28167e-07
-9.39722e-07
4.79033e-08
-9.29486e-07
-3.39324e-08
-8.94138e-07
-1.15679e-07
-8.34148e-07
-1.95571e-07
-7.50545e-07
-2.71659e-07
-6.45021e-07
-3.41757e-07
-5.20079e-07
-4.0332e-07
-3.79408e-07
-4.52666e-07
-2.29539e-07
-4.80513e-07
-8.69019e-08
-4.53716e-07
-2.69343e-07
-9.22509e-08
3.54192e-07
-2.44133e-07
5.93714e-07
-4.03854e-07
6.2883e-07
-5.54212e-07
5.94732e-07
-6.88612e-07
5.33868e-07
-8.03342e-07
4.57517e-07
-8.95797e-07
3.69814e-07
-9.64092e-07
2.73512e-07
-1.0069e-06
1.70975e-07
-1.02335e-06
6.4351e-08
-1.01295e-06
-4.43328e-08
-9.75585e-07
-1.53042e-07
-9.11568e-07
-2.59588e-07
-8.21732e-07
-3.61495e-07
-7.07604e-07
-4.55885e-07
-5.7163e-07
-5.39294e-07
-4.17657e-07
-6.06639e-07
-2.52845e-07
-6.45326e-07
-9.56009e-08
-6.1096e-07
-3.64944e-07
-1.02879e-07
4.57071e-07
-2.72224e-07
7.63059e-07
-4.49844e-07
8.0645e-07
-6.16362e-07
7.6125e-07
-7.64508e-07
6.82014e-07
-8.90408e-07
5.83418e-07
-9.91526e-07
4.70932e-07
-1.06614e-06
3.48124e-07
-1.11309e-06
2.17922e-07
-1.13159e-06
8.28604e-08
-1.12116e-06
-5.47629e-08
-1.08153e-06
-1.92673e-07
-1.01274e-06
-3.28381e-07
-9.15282e-07
-4.58955e-07
-7.90355e-07
-5.80811e-07
-6.40219e-07
-6.8943e-07
-4.68862e-07
-7.77997e-07
-2.84282e-07
-8.29905e-07
-1.07529e-07
-7.87714e-07
-4.72472e-07
-1.16952e-07
5.74023e-07
-3.09104e-07
9.55211e-07
-5.09814e-07
1.00716e-06
-6.96866e-07
9.48301e-07
-8.62164e-07
8.47312e-07
-1.00174e-06
7.22993e-07
-1.11328e-06
5.82473e-07
-1.19541e-06
4.30254e-07
-1.2473e-06
2.69813e-07
-1.26838e-06
1.03943e-07
-1.25817e-06
-6.49766e-08
-1.21619e-06
-2.34651e-07
-1.14207e-06
-4.02503e-07
-1.03573e-06
-5.65295e-07
-8.97768e-07
-7.18771e-07
-7.30003e-07
-8.57194e-07
-5.36433e-07
-9.71567e-07
-3.26081e-07
-1.04026e-06
-1.23518e-07
-9.90277e-07
-5.9599e-07
-1.3526e-07
7.09283e-07
-3.56759e-07
1.17671e-06
-5.86704e-07
1.2371e-06
-7.99178e-07
1.16078e-06
-9.85156e-07
1.03329e-06
-1.14076e-06
8.78598e-07
-1.26421e-06
7.05918e-07
-1.35478e-06
5.20828e-07
-1.41224e-06
3.27276e-07
-1.43641e-06
1.28105e-07
-1.42685e-06
-7.4531e-08
-1.38283e-06
-2.78672e-07
-1.30333e-06
-4.82e-07
-1.18737e-06
-6.81256e-07
-1.0345e-06
-8.71648e-07
-8.45607e-07
-1.04608e-06
-6.24384e-07
-1.19279e-06
-3.80987e-07
-1.28365e-06
-1.44667e-07
-1.2266e-06
-7.40657e-07
-1.59003e-07
8.68286e-07
-4.18075e-07
1.43578e-06
-6.84616e-07
1.50365e-06
-9.27923e-07
1.40408e-06
-1.13803e-06
1.2434e-06
-1.31157e-06
1.05214e-06
-1.44782e-06
8.42163e-07
-1.54722e-06
6.20231e-07
-1.61055e-06
3.90599e-07
-1.63824e-06
1.55799e-07
-1.63006e-06
-8.27083e-08
-1.5849e-06
-3.2383e-07
-1.50084e-06
-5.66059e-07
-1.37548e-06
-8.0662e-07
-1.20661e-06
-1.04052e-06
-9.93403e-07
-1.25929e-06
-7.3851e-07
-1.44768e-06
-4.53123e-07
-1.56904e-06
-1.72691e-07
-1.50703e-06
-9.13348e-07
-1.90079e-07
1.05836e-06
-4.97454e-07
1.74316e-06
-8.09568e-07
1.81576e-06
-1.08957e-06
1.68409e-06
-1.32683e-06
1.48066e-06
-1.51929e-06
1.24459e-06
-1.66815e-06
9.91029e-07
-1.77584e-06
7.27922e-07
-1.84471e-06
4.59466e-07
-1.87623e-06
1.87322e-07
-1.87051e-06
-8.84315e-08
-1.826e-06
-3.68336e-07
-1.73954e-06
-6.52524e-07
-1.60662e-06
-9.39538e-07
-1.42224e-06
-1.2249e-06
-1.18247e-06
-1.49906e-06
-8.87518e-07
-1.74263e-06
-5.48987e-07
-1.90757e-06
-2.10402e-07
-1.84561e-06
-1.12375e-06
-2.31607e-07
1.28997e-06
-6.01829e-07
2.11338e-06
-9.70587e-07
2.18452e-06
-1.29332e-06
2.00682e-06
-1.5596e-06
1.74694e-06
-1.77018e-06
1.45517e-06
-1.92967e-06
1.15052e-06
-2.04359e-06
8.41843e-07
-2.1167e-06
5.32578e-07
-2.15203e-06
2.22653e-07
-2.15028e-06
-9.01854e-08
-2.10946e-06
-4.09159e-07
-2.02477e-06
-7.3721e-07
-1.8888e-06
-1.07551e-06
-1.69225e-06
-1.42145e-06
-1.42588e-06
-1.76543e-06
-1.08482e-06
-2.08369e-06
-6.79209e-07
-2.31319e-06
-2.62643e-07
-2.26218e-06
-1.38639e-06
-2.88971e-07
1.57894e-06
-7.42515e-07
2.56692e-06
-1.18153e-06
2.62353e-06
-1.55235e-06
2.37764e-06
-1.84703e-06
2.04162e-06
-2.07183e-06
1.67997e-06
-2.23701e-06
1.3157e-06
-2.35276e-06
9.57595e-07
-2.4273e-06
6.07123e-07
-2.46586e-06
2.61206e-07
-2.47006e-06
-8.59778e-08
-2.4376e-06
-4.41629e-07
-2.36178e-06
-8.13029e-07
-2.23138e-06
-1.20591e-06
-2.03094e-06
-1.62188e-06
-1.74259e-06
-2.05378e-06
-1.35159e-06
-2.47469e-06
-8.61921e-07
-2.80286e-06
-3.38325e-07
-2.78577e-06
-1.72472e-06
-3.71997e-07
1.95094e-06
-9.38647e-07
3.13357e-06
-1.46405e-06
3.14893e-06
-1.8857e-06
2.79929e-06
-2.2032e-06
2.35912e-06
-2.43305e-06
1.90982e-06
-2.59439e-06
1.47704e-06
-2.70414e-06
1.06734e-06
-2.77511e-06
6.78087e-07
-2.81535e-06
3.01451e-07
-2.82792e-06
-7.34095e-08
-2.81045e-06
-4.59102e-07
-2.75446e-06
-8.69017e-07
-2.64436e-06
-1.316e-06
-2.45655e-06
-1.80969e-06
-2.15995e-06
-2.35039e-06
-1.72178e-06
-2.91286e-06
-1.12937e-06
-3.39526e-06
-4.55077e-07
-3.46007e-06
-2.1798e-06
-4.99728e-07
2.45067e-06
-1.2237e-06
3.85754e-06
-1.85236e-06
3.7776e-06
-2.32034e-06
3.26727e-06
-2.64567e-06
2.68445e-06
-2.86275e-06
2.1269e-06
-3.004e-06
1.61829e-06
-3.09515e-06
1.15849e-06
-3.15452e-06
7.37456e-07
-3.19347e-06
3.40401e-07
-3.21688e-06
-4.9994e-08
-3.22303e-06
-4.52954e-07
-3.20245e-06
-8.89594e-07
-3.13569e-06
-1.38277e-06
-2.98989e-06
-1.95549e-06
-2.71569e-06
-2.62458e-06
-2.24961e-06
-3.37895e-06
-1.54052e-06
-4.10435e-06
-6.49986e-07
-4.3506e-06
-2.82978e-06
-7.10758e-07
3.16143e-06
-1.65681e-06
4.8036e-06
-2.39847e-06
4.51925e-06
-2.89066e-06
3.75946e-06
-3.19134e-06
2.98513e-06
-3.36405e-06
2.29961e-06
-3.45927e-06
1.71351e-06
-3.51292e-06
1.21214e-06
-3.54875e-06
7.73288e-07
-3.58115e-06
3.72803e-07
-3.61706e-06
-1.40818e-08
-3.65646e-06
-4.13554e-07
-3.691e-06
-8.55061e-07
-3.7001e-06
-1.37367e-06
-3.64373e-06
-2.01186e-06
-3.4515e-06
-2.81682e-06
-3.01314e-06
-3.8173e-06
-2.19824e-06
-4.91925e-06
-9.99944e-07
-5.5489e-06
-3.82973e-06
-1.08189e-06
4.24332e-06
-2.33352e-06
6.05523e-06
-3.16316e-06
5.34889e-06
-3.6152e-06
4.2115e-06
-3.8254e-06
3.19533e-06
-3.89961e-06
2.37382e-06
-3.90885e-06
1.72275e-06
-3.89761e-06
1.2009e-06
-3.89254e-06
7.68219e-07
-3.90914e-06
3.8941e-07
-3.95585e-06
3.26286e-08
-4.0356e-06
-3.33804e-07
-4.14472e-06
-7.45945e-07
-4.26793e-06
-1.25046e-06
-4.36667e-06
-1.91311e-06
-4.35607e-06
-2.82743e-06
-4.06844e-06
-4.10493e-06
-3.23192e-06
-5.75578e-06
-1.63542e-06
-7.14539e-06
-5.46515e-06
-1.74228e-06
5.9856e-06
-3.33455e-06
7.6475e-06
-4.09788e-06
6.11221e-06
-4.33854e-06
4.45216e-06
-4.32343e-06
3.18022e-06
-4.20488e-06
2.25526e-06
-4.06594e-06
1.58381e-06
-3.94972e-06
1.08468e-06
-3.87777e-06
6.96267e-07
-3.86144e-06
3.73085e-07
-3.90811e-06
7.92921e-08
-4.02392e-06
-2.1799e-07
-4.21383e-06
-5.56033e-07
-4.47736e-06
-9.86931e-07
-4.79513e-06
-1.59534e-06
-5.09426e-06
-2.52829e-06
-5.17175e-06
-4.02744e-06
-4.57012e-06
-6.3574e-06
-2.64745e-06
-9.06806e-06
-8.11261e-06
-2.76688e-06
8.75248e-06
-4.25223e-06
9.13285e-06
-4.34569e-06
6.20568e-06
-3.93955e-06
4.04602e-06
-3.43472e-06
2.67539e-06
-2.97099e-06
1.79153e-06
-2.59655e-06
1.20937e-06
-2.32336e-06
8.11497e-07
-2.14995e-06
5.22852e-07
-2.07306e-06
2.96191e-07
-2.09308e-06
9.93128e-08
-2.21663e-06
-9.44377e-08
-2.45808e-06
-3.14579e-07
-2.83945e-06
-6.05567e-07
-3.38367e-06
-1.05112e-06
-4.08474e-06
-1.82721e-06
-4.81007e-06
-3.30212e-06
-5.04762e-06
-6.11986e-06
-3.57162e-06
-1.05441e-05
-1.16842e-05
-2.90278e-06
1.16553e-05
-1.59421e-06
7.82427e-06
5.86068e-07
4.0254e-06
2.32377e-06
2.30832e-06
3.58387e-06
1.4153e-06
4.48823e-06
8.87174e-07
5.12668e-06
5.70913e-07
5.56378e-06
3.74401e-07
5.84453e-06
2.42095e-07
5.99651e-06
1.44219e-07
6.03225e-06
6.35702e-08
5.95021e-06
-1.2399e-08
5.73243e-06
-9.6796e-08
5.33747e-06
-2.10612e-07
4.68691e-06
-4.00561e-07
3.65081e-06
-7.91112e-07
2.07845e-06
-1.72975e-06
-1.80692e-08
-4.02334e-06
-1.68188e-06
-8.88025e-06
-1.33661e-05
1.16553e-05
1.94795e-05
2.35049e-05
2.58133e-05
2.72286e-05
2.81157e-05
2.86866e-05
2.9061e-05
2.93031e-05
2.94474e-05
2.95109e-05
2.94985e-05
2.94017e-05
2.91911e-05
2.87906e-05
2.79994e-05
2.62697e-05
2.22464e-05
1.33661e-05
)
;

boundaryField
{
    movingWall
    {
        type            calculated;
        value           uniform 0;
    }
    fixedWalls
    {
        type            calculated;
        value           uniform 0;
    }
    frontAndBack
    {
        type            empty;
        value           nonuniform 0();
    }
}


// ************************************************************************* //
