/*--------------------------------*- C++ -*----------------------------------*\
  =========                 |
  \\      /  F ield         | OpenFOAM: The Open Source CFD Toolbox
   \\    /   O peration     | Website:  https://openfoam.org
    \\  /    A nd           | Version:  6
     \\/     M anipulation  |
\*---------------------------------------------------------------------------*/
FoamFile
{
    version     2.0;
    format      ascii;
    class       volVectorField;
    location    "0.02";
    object      U;
}
// * * * * * * * * * * * * * * * * * * * * * * * * * * * * * * * * * * * * * //

dimensions      [0 1 -1 0 0 0 0];

internalField   nonuniform List<vector> 
400
(
(-0.000303815 0.000299326 0)
(-0.00126988 0.000597709 0)
(-0.00265871 0.000649414 0)
(-0.00405989 0.000615528 0)
(-0.0053415 0.000553917 0)
(-0.00646774 0.000476786 0)
(-0.0074111 0.000387402 0)
(-0.00814752 0.000288142 0)
(-0.00865823 0.000181391 0)
(-0.00892981 6.95829e-05 0)
(-0.00895414 -4.47982e-05 0)
(-0.00872859 -0.000159169 0)
(-0.00825623 -0.000270798 0)
(-0.0075462 -0.000376772 0)
(-0.0066142 -0.00047402 0)
(-0.00548282 -0.000559307 0)
(-0.00417997 -0.000628361 0)
(-0.0027441 -0.000667755 0)
(-0.00131481 -0.000617766 0)
(-0.000315367 -0.000311907 0)
(-0.000619153 0.00127288 0)
(-0.00237156 0.00231775 0)
(-0.00471703 0.0024946 0)
(-0.00705825 0.002368 0)
(-0.00920182 0.00213208 0)
(-0.011086 0.00183361 0)
(-0.0126617 0.00148731 0)
(-0.0138884 0.00110325 0)
(-0.0147354 0.000690982 0)
(-0.0151814 0.000259988 0)
(-0.0152139 -0.000180188 0)
(-0.0148295 -0.000619718 0)
(-0.0140338 -0.00104824 0)
(-0.0128425 -0.0014547 0)
(-0.0112821 -0.00182724 0)
(-0.00939106 -0.00215286 0)
(-0.00721895 -0.0024133 0)
(-0.00483143 -0.00255723 0)
(-0.00243181 -0.00238377 0)
(-0.000635005 -0.00131381 0)
(-0.000721891 0.00273679 0)
(-0.0027514 0.00473143 0)
(-0.00544275 0.00505458 0)
(-0.00811133 0.00479776 0)
(-0.010548 0.00431927 0)
(-0.0126868 0.00371186 0)
(-0.0144731 0.00300743 0)
(-0.0158621 0.00222745 0)
(-0.0168205 0.00139164 0)
(-0.0173253 0.000519135 0)
(-0.0173629 -0.000371056 0)
(-0.0169294 -0.0012595 0)
(-0.0160306 -0.00212572 0)
(-0.0146829 -0.00294767 0)
(-0.0129147 -0.00370137 0)
(-0.0107682 -0.00435987 0)
(-0.0082985 -0.00488447 0)
(-0.00557601 -0.00517346 0)
(-0.00282183 -0.00485541 0)
(-0.000740914 -0.00281427 0)
(-0.00078044 0.00437124 0)
(-0.00298591 0.00740745 0)
(-0.00591342 0.00787645 0)
(-0.00880651 0.00746693 0)
(-0.01144 0.00671675 0)
(-0.0137461 0.00576729 0)
(-0.0156686 0.00466893 0)
(-0.017162 0.00345566 0)
(-0.018193 0.00215806 0)
(-0.0187388 0.000805227 0)
(-0.0187855 -0.00057437 0)
(-0.0183286 -0.0019518 0)
(-0.0173722 -0.00329643 0)
(-0.0159311 -0.00457484 0)
(-0.0140322 -0.00575003 0)
(-0.0117174 -0.00677953 0)
(-0.00904299 -0.00760223 0)
(-0.00608221 -0.00806247 0)
(-0.00307512 -0.00760138 0)
(-0.000804618 -0.00449237 0)
(-0.000852315 0.00613254 0)
(-0.00326668 0.0103018 0)
(-0.00647239 0.0109225 0)
(-0.00963208 0.0103394 0)
(-0.0124984 0.00928934 0)
(-0.0149999 0.00796736 0)
(-0.0170796 0.00644429 0)
(-0.0186927 0.00476766 0)
(-0.0198074 0.00297915 0)
(-0.020402 0.00111735 0)
(-0.0204632 -0.000780749 0)
(-0.0199849 -0.00267782 0)
(-0.0189687 -0.00453401 0)
(-0.0174256 -0.0063049 0)
(-0.0153787 -0.00793991 0)
(-0.0128675 -0.00937941 0)
(-0.00994839 -0.0105368 0)
(-0.00669911 -0.0111955 0)
(-0.0033866 -0.0105872 0)
(-0.000884686 -0.00631098 0)
(-0.000950742 0.00807409 0)
(-0.00364376 0.0134967 0)
(-0.00721461 0.0142782 0)
(-0.0107219 0.0134928 0)
(-0.0138887 0.0121026 0)
(-0.0166394 0.0103646 0)
(-0.0189169 0.00837355 0)
(-0.0206791 0.00619239 0)
(-0.0218977 0.00387404 0)
(-0.0225541 0.00146562 0)
(-0.0226358 -0.000989053 0)
(-0.0221352 -0.00344627 0)
(-0.0210497 -0.0058587 0)
(-0.0193838 -0.00817188 0)
(-0.0171536 -0.0103212 0)
(-0.0143931 -0.0122273 0)
(-0.0111568 -0.0137728 0)
(-0.00752805 -0.014669 0)
(-0.00380982 -0.013907 0)
(-0.000995331 -0.00833107 0)
(-0.0010817 0.0102607 0)
(-0.00414105 0.0170911 0)
(-0.00818601 0.0180413 0)
(-0.0121386 0.017012 0)
(-0.0156839 0.0152248 0)
(-0.0187422 0.0130109 0)
(-0.0212595 0.0104947 0)
(-0.0231997 0.00775646 0)
(-0.0245418 0.00486039 0)
(-0.0252729 0.00186035 0)
(-0.0253827 -0.00119599 0)
(-0.0248619 -0.00426193 0)
(-0.0237013 -0.00728584 0)
(-0.0218954 -0.0102053 0)
(-0.0194481 -0.0129417 0)
(-0.016382 -0.0153929 0)
(-0.0127456 -0.017403 0)
(-0.00862648 -0.0185943 0)
(-0.00437511 -0.0176755 0)
(-0.00114428 -0.0106277 0)
(-0.00125279 0.0127683 0)
(-0.00478636 0.0212025 0)
(-0.00943711 0.0223242 0)
(-0.0139478 0.0209892 0)
(-0.0179554 0.0187255 0)
(-0.0213792 0.0159555 0)
(-0.0241734 0.0128409 0)
(-0.0263145 0.00948178 0)
(-0.0277949 0.00595298 0)
(-0.0286115 0.00231183 0)
(-0.0287591 -0.00139491 0)
(-0.028226 -0.00512312 0)
(-0.026994 -0.00882227 0)
(-0.0250417 -0.0124261 0)
(-0.0223525 -0.0158434 0)
(-0.0189286 -0.0189463 0)
(-0.0148032 -0.0215295 0)
(-0.0100638 -0.0231026 0)
(-0.00512105 -0.0220331 0)
(-0.00134201 -0.0132917 0)
(-0.00147577 0.0156919 0)
(-0.00562097 0.0259765 0)
(-0.0110399 0.0272606 0)
(-0.0162393 0.0255274 0)
(-0.0207969 0.0226754 0)
(-0.0246379 0.0192425 0)
(-0.0277348 0.0154372 0)
(-0.030088 0.0113826 0)
(-0.031712 0.00716171 0)
(-0.032621 0.00282991 0)
(-0.0328179 -0.0015745 0)
(-0.0322894 -0.00601862 0)
(-0.0310046 -0.0104618 0)
(-0.0289183 -0.0148414 0)
(-0.0259815 -0.0190579 0)
(-0.0221598 -0.0229555 0)
(-0.0174549 -0.0262671 0)
(-0.0119422 -0.0283543 0)
(-0.00610685 -0.0271594 0)
(-0.00160522 -0.0164409 0)
(-0.00176962 0.0191567 0)
(-0.00670918 0.0315993 0)
(-0.0131024 0.033013 0)
(-0.0191419 0.0307403 0)
(-0.0243361 0.0271414 0)
(-0.0286306 0.0229032 0)
(-0.0320351 0.0182933 0)
(-0.0345905 0.0134592 0)
(-0.0363479 0.00848739 0)
(-0.0373479 0.00342244 0)
(-0.0376078 -0.00171721 0)
(-0.0371134 -0.00692271 0)
(-0.035817 -0.0121768 0)
(-0.0336399 -0.0174333 0)
(-0.0304831 -0.0225944 0)
(-0.0262512 -0.0274782 0)
(-0.0208841 -0.0317407 0)
(-0.0144196 -0.034548 0)
(-0.00742792 -0.0332928 0)
(-0.00196167 -0.0202367 0)
(-0.00216622 0.023336 0)
(-0.00815477 0.0383189 0)
(-0.0157907 0.0397804 0)
(-0.022844 0.0367491 0)
(-0.0287489 0.0321762 0)
(-0.0335018 0.0269434 0)
(-0.0371811 0.0213907 0)
(-0.0398945 0.015688 0)
(-0.0417492 0.0099154 0)
(-0.0428259 0.00409275 0)
(-0.0431632 -0.00179756 0)
(-0.0427492 -0.00778879 0)
(-0.0415156 -0.0139068 0)
(-0.0393385 -0.020143 0)
(-0.0360466 -0.0264205 0)
(-0.0314464 -0.0325427 0)
(-0.0253647 -0.0380781 0)
(-0.0177469 -0.0419324 0)
(-0.00924498 -0.0407628 0)
(-0.00246021 -0.0249132 0)
(-0.00272202 0.0284846 0)
(-0.0101322 0.0464779 0)
(-0.0193684 0.0478096 0)
(-0.0276257 0.0436729 0)
(-0.0342787 0.0377993 0)
(-0.0394349 0.0313228 0)
(-0.0432932 0.024665 0)
(-0.0460664 0.0180078 0)
(-0.0479434 0.0114065 0)
(-0.049061 0.00483546 0)
(-0.0494894 -0.00178095 0)
(-0.0492226 -0.00854172 0)
(-0.0481715 -0.0155429 0)
(-0.0461565 -0.0228455 0)
(-0.0429077 -0.0304291 0)
(-0.0380826 -0.0381143 0)
(-0.031311 -0.045387 0)
(-0.0223364 -0.0508156 0)
(-0.0118436 -0.050043 0)
(-0.00319304 -0.0308334 0)
(-0.00354337 0.0350025 0)
(-0.0129486 0.0565682 0)
(-0.0242649 0.0574019 0)
(-0.0339081 0.0516046 0)
(-0.0412607 0.0439613 0)
(-0.0466568 0.0359206 0)
(-0.0504976 0.0279783 0)
(-0.0531516 0.0203002 0)
(-0.0549195 0.0128846 0)
(-0.056011 0.00563036 0)
(-0.0565379 -0.00162357 0)
(-0.0565084 -0.00906995 0)
(-0.0558167 -0.0169088 0)
(-0.0542251 -0.0253157 0)
(-0.051343 -0.0343866 0)
(-0.0466177 -0.0440297 0)
(-0.0393541 -0.0536991 0)
(-0.028886 -0.0615627 0)
(-0.0157611 -0.0618403 0)
(-0.00434842 -0.0386118 0)
(-0.00484351 0.0435639 0)
(-0.0171695 0.0693165 0)
(-0.0311955 0.0689019 0)
(-0.0423214 0.0605515 0)
(-0.0501417 0.0504785 0)
(-0.0554264 0.0404815 0)
(-0.0588972 0.0310813 0)
(-0.0611386 0.0223653 0)
(-0.0625895 0.0142217 0)
(-0.0635438 0.00643374 0)
(-0.0641626 -0.00127549 0)
(-0.0644791 -0.00922064 0)
(-0.0643867 -0.0177415 0)
(-0.0636054 -0.0271844 0)
(-0.0616242 -0.0378533 0)
(-0.0576293 -0.0498794 0)
(-0.050432 -0.0628411 0)
(-0.0385903 -0.0745382 0)
(-0.0220549 -0.077227 0)
(-0.00633515 -0.0493693 0)
(-0.00706914 0.0553821 0)
(-0.0238668 0.0858028 0)
(-0.0413394 0.0826301 0)
(-0.0537478 0.0703099 0)
(-0.0614238 0.0569204 0)
(-0.0659261 0.0445371 0)
(-0.0684424 0.0335646 0)
(-0.0698224 0.0238938 0)
(-0.0706497 0.0152214 0)
(-0.0712956 0.00716635 0)
(-0.0719684 -0.000690978 0)
(-0.0727383 -0.00880579 0)
(-0.0735302 -0.0176837 0)
(-0.0740731 -0.0278973 0)
(-0.0737926 -0.0400774 0)
(-0.0716284 -0.0548052 0)
(-0.0657424 -0.07214 0)
(-0.0533514 -0.0898347 0)
(-0.0327465 -0.0976812 0)
(-0.0100211 -0.065178 0)
(-0.0111365 0.072843 0)
(-0.0349845 0.107607 0)
(-0.0563685 0.098667 0)
(-0.0689726 0.0802005 0)
(-0.0750988 0.0624062 0)
(-0.0775945 0.0472767 0)
(-0.0782193 0.0347881 0)
(-0.0780753 0.0244296 0)
(-0.0778411 0.0155945 0)
(-0.0779178 0.00768868 0)
(-0.0785344 0.00013898 0)
(-0.0798036 -0.00764345 0)
(-0.0817285 -0.0163245 0)
(-0.0841472 -0.0267278 0)
(-0.0865813 -0.039923 0)
(-0.0879077 -0.0572477 0)
(-0.0856625 -0.079893 0)
(-0.0750907 -0.106579 0)
(-0.0508481 -0.124987 0)
(-0.0168664 -0.0902254 0)
(-0.0186344 0.101222 0)
(-0.0531529 0.136601 0)
(-0.0766994 0.11576 0)
(-0.0857965 0.0880986 0)
(-0.087216 0.0649678 0)
(-0.0854468 0.0471811 0)
(-0.082663 0.0336821 0)
(-0.0800106 0.0232589 0)
(-0.0780803 0.0148825 0)
(-0.0771712 0.00772651 0)
(-0.0774563 0.00109345 0)
(-0.0790668 -0.00568461 0)
(-0.082122 -0.0133681 0)
(-0.086697 -0.0229785 0)
(-0.0926787 -0.036053 0)
(-0.0993367 -0.0549826 0)
(-0.104153 -0.083086 0)
(-0.100521 -0.122502 0)
(-0.0769193 -0.162112 0)
(-0.0273285 -0.134894 0)
(-0.0303305 0.150691 0)
(-0.0760766 0.170629 0)
(-0.0891723 0.126002 0)
(-0.0836448 0.0871527 0)
(-0.0736357 0.0599882 0)
(-0.0637063 0.0413587 0)
(-0.0552707 0.0284824 0)
(-0.0488051 0.0192999 0)
(-0.044364 0.0123913 0)
(-0.0418763 0.00679547 0)
(-0.0413038 0.00180594 0)
(-0.0427126 -0.00319925 0)
(-0.0463132 -0.00892633 0)
(-0.0524865 -0.0164114 0)
(-0.0617508 -0.027479 0)
(-0.0744802 -0.0456278 0)
(-0.0898469 -0.0774 0)
(-0.102435 -0.132262 0)
(-0.0932396 -0.207789 0)
(-0.0310273 -0.211445 0)
(-0.0260834 0.219459 0)
(-0.0527706 0.184968 0)
(-0.0110392 0.109303 0)
(0.0311871 0.0666548 0)
(0.0609252 0.0424724 0)
(0.0819704 0.0276192 0)
(0.0970383 0.0182637 0)
(0.107571 0.0121411 0)
(0.114603 0.00785421 0)
(0.118846 0.00458646 0)
(0.120689 0.00182132 0)
(0.120238 -0.000846259 0)
(0.117303 -0.00385804 0)
(0.1113 -0.00790988 0)
(0.101045 -0.0144458 0)
(0.084393 -0.0269358 0)
(0.0576387 -0.0538634 0)
(0.0168038 -0.112126 0)
(-0.0183414 -0.214164 0)
(0.0263525 -0.266418 0)
(0.266964 0.133268 0)
(0.324665 0.10362 0)
(0.426384 0.0578578 0)
(0.496357 0.0321076 0)
(0.533698 0.0186298 0)
(0.555158 0.0111807 0)
(0.56894 0.00694986 0)
(0.578063 0.00446261 0)
(0.584048 0.00289426 0)
(0.587805 0.00181087 0)
(0.589825 0.00097966 0)
(0.590313 0.000254495 0)
(0.589221 -0.000490283 0)
(0.586164 -0.00142745 0)
(0.580078 -0.00292042 0)
(0.568213 -0.00594844 0)
(0.543746 -0.0134612 0)
(0.487302 -0.0336784 0)
(0.379566 -0.0844294 0)
(0.314171 -0.130955 0)
)
;

boundaryField
{
    movingWall
    {
        type            fixedValue;
        value           uniform (1 0 0);
    }
    fixedWalls
    {
        type            noSlip;
    }
    frontAndBack
    {
        type            empty;
    }
}


// ************************************************************************* //
