/*--------------------------------*- C++ -*----------------------------------*\
  =========                 |
  \\      /  F ield         | OpenFOAM: The Open Source CFD Toolbox
   \\    /   O peration     | Website:  https://openfoam.org
    \\  /    A nd           | Version:  6
     \\/     M anipulation  |
\*---------------------------------------------------------------------------*/
FoamFile
{
    version     2.0;
    format      ascii;
    class       volScalarField;
    location    "0.07";
    object      p;
}
// * * * * * * * * * * * * * * * * * * * * * * * * * * * * * * * * * * * * * //

dimensions      [0 2 -2 0 0 0 0];

internalField   nonuniform List<scalar> 
400
(
3.41973e-08
-0.00294012
-0.00641255
-0.00884932
-0.00941887
-0.00777813
-0.00392649
0.00189916
0.00929858
0.0177532
0.0266565
0.0353428
0.0431262
0.0493566
0.0534953
0.055213
0.0545057
0.0518116
0.0481291
0.0451514
0.00290858
-0.000122978
-0.00282777
-0.00443202
-0.00455376
-0.00294976
0.000398959
0.00532243
0.0115141
0.0185626
0.0259777
0.0332174
0.0397258
0.0449828
0.0485668
0.0502308
0.0499879
0.0481576
0.045266
0.0422127
0.00659947
0.00239386
-0.000549404
-0.00201032
-0.00203948
-0.000518082
0.00254058
0.00697744
0.0125285
0.0188428
0.0254975
0.0320194
0.0379161
0.0427201
0.0460419
0.0476339
0.0474679
0.0457374
0.0425506
0.0382919
0.00974188
0.00393261
0.000241279
-0.00146416
-0.00159698
-0.000153325
0.00280214
0.00709073
0.0124575
0.0185773
0.0250575
0.0314504
0.0372779
0.0420685
0.0454046
0.0469838
0.0467048
0.0446471
0.0405883
0.0346265
0.0115124
0.00399547
-0.000600852
-0.00266699
-0.00293385
-0.00149928
0.00151874
0.00591185
0.0114199
0.0177264
0.0244491
0.0311429
0.0373151
0.0424568
0.0460859
0.0478105
0.0474342
0.0449263
0.0397786
0.0319162
0.0112911
0.00199702
-0.00356698
-0.00600798
-0.00635608
-0.00480373
-0.00152242
0.00324479
0.00922489
0.0161002
0.023487
0.0309266
0.0378913
0.0438073
0.0480943
0.050235
0.0499081
0.0469593
0.040599
0.0306333
0.00850649
-0.00266546
-0.00921988
-0.01198
-0.0122882
-0.0104357
-0.00665047
-0.00121317
0.00558767
0.0134307
0.0219267
0.0305964
0.0388639
0.0460681
0.0514968
0.0544632
0.0544754
0.0512161
0.0435664
0.0312163
0.00252744
-0.0106613
-0.0181931
-0.021145
-0.0212197
-0.0188253
-0.014254
-0.00782611
0.000157621
0.00937827
0.0194481
0.029872
0.0400234
0.0491399
0.0563439
0.0607256
0.0615543
0.0582733
0.0493221
0.0342224
-0.00742261
-0.0227989
-0.0312452
-0.0341704
-0.0337261
-0.030473
-0.0247818
-0.0170128
-0.00746996
0.00354644
0.0156701
0.0284101
0.0411034
0.0528844
0.0626831
0.0693038
0.0716827
0.0688975
0.0587495
0.0404718
-0.0223407
-0.0400926
-0.0492978
-0.0518347
-0.0504475
-0.0459085
-0.0386876
-0.0291852
-0.0176918
-0.00446104
0.0101979
0.0258379
0.041796
0.0571256
0.0705529
0.0805338
0.0855497
0.0841242
0.073106
0.0512083
-0.0435416
-0.0638493
-0.073474
-0.0750111
-0.0720292
-0.0656009
-0.0563231
-0.0446319
-0.0307778
-0.0149264
0.00272407
0.0218341
0.0418091
0.0616799
0.0799934
0.0948135
0.104031
0.105354
0.0941952
0.0683196
-0.0728308
-0.0958031
-0.105141
-0.104623
-0.099015
-0.0898132
-0.077769
-0.063338
-0.0466889
-0.0278403
-0.00680489
0.0162761
0.0409828
0.066435
0.0910877
0.112627
0.128233
0.134473
0.124616
0.0946879
-0.112866
-0.138347
-0.145952
-0.141544
-0.131663
-0.118378
-0.102596
-0.0847463
-0.0648435
-0.0426757
-0.0179744
0.00943557
0.0394563
0.071474
0.104036
0.134577
0.15954
0.17401
0.168135
0.134808
-0.167967
-0.194939
-0.197852
-0.186378
-0.169644
-0.150378
-0.129567
-0.10749
-0.0838809
-0.0581767
-0.0297068
0.00215873
0.037825
0.0771905
0.119207
0.16138
0.1996
0.227266
0.230262
0.195978
-0.245885
-0.270735
-0.262887
-0.238976
-0.211516
-0.183703
-0.156302
-0.129167
-0.101524
-0.0722803
-0.0402202
-0.00411251
0.0371435
0.0842522
0.13702
0.193633
0.250048
0.298252
0.318999
0.290534
-0.361159
-0.373297
-0.342619
-0.297631
-0.254067
-0.214622
-0.179096
-0.146358
-0.114735
-0.082365
-0.0473251
-0.00765378
0.0386135
0.093285
0.157584
0.231344
0.311889
0.391098
0.445241
0.439142
-0.541432
-0.512857
-0.437116
-0.358527
-0.292153
-0.237966
-0.19339
-0.155286
-0.120489
-0.0860633
-0.0492428
-0.00725852
0.0428233
0.104175
0.180079
0.273349
0.384746
0.508866
0.622584
0.676134
-0.851021
-0.702263
-0.539539
-0.411901
-0.316746
-0.246494
-0.193975
-0.152515
-0.116727
-0.0823867
-0.04589
-0.00374055
0.0479092
0.11372
0.199666
0.31318
0.461388
0.647807
0.86942
1.07495
-1.46452
-0.948174
-0.607799
-0.419715
-0.301289
-0.223194
-0.170731
-0.132659
-0.101318
-0.0716005
-0.0395888
-0.00161393
0.0464981
0.110335
0.198334
0.323537
0.503773
0.768479
1.19907
1.8172
-2.53994
-1.1799
-0.555964
-0.326453
-0.215605
-0.15339
-0.117455
-0.0940285
-0.0750625
-0.056026
-0.0338268
-0.00566798
0.0317366
0.0831857
0.157032
0.269122
0.449669
0.776232
1.51497
2.98951
)
;

boundaryField
{
    movingWall
    {
        type            zeroGradient;
    }
    fixedWalls
    {
        type            zeroGradient;
    }
    frontAndBack
    {
        type            empty;
    }
}


// ************************************************************************* //
