/*--------------------------------*- C++ -*----------------------------------*\
  =========                 |
  \\      /  F ield         | OpenFOAM: The Open Source CFD Toolbox
   \\    /   O peration     | Website:  https://openfoam.org
    \\  /    A nd           | Version:  6
     \\/     M anipulation  |
\*---------------------------------------------------------------------------*/
FoamFile
{
    version     2.0;
    format      ascii;
    class       volVectorField;
    location    "0.07";
    object      U;
}
// * * * * * * * * * * * * * * * * * * * * * * * * * * * * * * * * * * * * * //

dimensions      [0 1 -1 0 0 0 0];

internalField   nonuniform List<vector> 
400
(
(0.000193846 -0.000191376 0)
(4.8517e-05 0.000131989 0)
(-0.0011256 0.000512719 0)
(-0.00311648 0.00077183 0)
(-0.00557537 0.00089527 0)
(-0.00817265 0.00090032 0)
(-0.010624 0.000809564 0)
(-0.0126982 0.00064483 0)
(-0.014217 0.000425348 0)
(-0.0150526 0.000168697 0)
(-0.0151276 -0.000107165 0)
(-0.0144191 -0.00038192 0)
(-0.0129662 -0.000631548 0)
(-0.0108792 -0.000828075 0)
(-0.00834612 -0.000940759 0)
(-0.00563355 -0.000939288 0)
(-0.00307451 -0.000799636 0)
(-0.00104004 -0.000512717 0)
(0.000113183 -0.00011024 0)
(0.000213963 0.000208541 0)
(-0.000103933 -7.29518e-05 0)
(-0.00148564 0.00151089 0)
(-0.00501982 0.00315895 0)
(-0.0101573 0.00430419 0)
(-0.0162018 0.00484879 0)
(-0.0224797 0.0048284 0)
(-0.0283669 0.00432445 0)
(-0.0333311 0.00343251 0)
(-0.0369526 0.00224888 0)
(-0.03893 0.000869655 0)
(-0.0390848 -0.000604152 0)
(-0.0373726 -0.00206058 0)
(-0.0338966 -0.00337304 0)
(-0.0289224 -0.00440163 0)
(-0.022886 -0.00500174 0)
(-0.0163843 -0.00504223 0)
(-0.0101333 -0.00443524 0)
(-0.00488782 -0.00317754 0)
(-0.00136893 -0.00143562 0)
(-6.37879e-05 0.000143239 0)
(-0.000486734 0.00105535 0)
(-0.00326105 0.0050595 0)
(-0.009149 0.00879841 0)
(-0.0171196 0.01137 0)
(-0.0261737 0.0125525 0)
(-0.0354126 0.0123905 0)
(-0.0439942 0.0110487 0)
(-0.0511912 0.00874337 0)
(-0.056426 0.00570792 0)
(-0.0592821 0.00218498 0)
(-0.0595135 -0.00156721 0)
(-0.0570588 -0.00526485 0)
(-0.0520597 -0.00859321 0)
(-0.0448785 -0.0112128 0)
(-0.0361077 -0.0127825 0)
(-0.0265561 -0.0130052 0)
(-0.0171891 -0.0116977 0)
(-0.0090253 -0.00888125 0)
(-0.00311707 -0.00492203 0)
(-0.000431542 -0.000900826 0)
(-0.00082285 0.00313615 0)
(-0.00493138 0.010628 0)
(-0.0131326 0.0170418 0)
(-0.0238258 0.0213106 0)
(-0.0356751 0.0231542 0)
(-0.0475793 0.0226613 0)
(-0.0585302 0.0201107 0)
(-0.0676646 0.0158709 0)
(-0.0742997 0.0103469 0)
(-0.0779416 0.00396476 0)
(-0.078294 -0.00282033 0)
(-0.0752732 -0.00950976 0)
(-0.0690308 -0.0155535 0)
(-0.0599781 -0.020361 0)
(-0.0488036 -0.0233414 0)
(-0.0364675 -0.0239805 0)
(-0.0241405 -0.0219548 0)
(-0.0130989 -0.0172724 0)
(-0.00478481 -0.0104512 0)
(-0.000753876 -0.00287753 0)
(-0.00112422 0.00607129 0)
(-0.00652254 0.0181133 0)
(-0.0170302 0.0277581 0)
(-0.0304388 0.0339228 0)
(-0.0450381 0.0363752 0)
(-0.0595187 0.0353201 0)
(-0.0727267 0.0311988 0)
(-0.0836958 0.0245664 0)
(-0.0916715 0.016024 0)
(-0.0961066 0.00620047 0)
(-0.0966621 -0.00423488 0)
(-0.0932212 -0.0145492 0)
(-0.0859164 -0.0239313 0)
(-0.075166 -0.031503 0)
(-0.0617099 -0.0363738 0)
(-0.0466256 -0.0377484 0)
(-0.0312826 -0.0350886 0)
(-0.0172485 -0.0283061 0)
(-0.00643021 -0.0179796 0)
(-0.00104843 -0.00570613 0)
(-0.00141982 0.0098284 0)
(-0.00812605 0.0275267 0)
(-0.0210034 0.0410009 0)
(-0.037199 0.0492637 0)
(-0.0545937 0.0522486 0)
(-0.0716594 0.0503719 0)
(-0.0871084 0.0443052 0)
(-0.0998971 0.0348327 0)
(-0.109226 0.0227743 0)
(-0.114516 0.00897009 0)
(-0.115388 -0.00569472 0)
(-0.11168 -0.0202502 0)
(-0.103473 -0.0336108 0)
(-0.0911507 -0.0445795 0)
(-0.0754578 -0.0519081 0)
(-0.0575583 -0.0544338 0)
(-0.0390198 -0.0512925 0)
(-0.0217447 -0.0421788 0)
(-0.00819389 -0.0276248 0)
(-0.00135452 -0.00939172 0)
(-0.00173609 0.0144355 0)
(-0.00983455 0.0389534 0)
(-0.025217 0.0568824 0)
(-0.0443225 0.0674336 0)
(-0.0645859 0.0708404 0)
(-0.0842557 0.0678487 0)
(-0.10193 0.0594458 0)
(-0.11652 0.0466954 0)
(-0.127215 0.0306561 0)
(-0.133428 0.012377 0)
(-0.134751 -0.00705583 0)
(-0.130963 -0.026451 0)
(-0.122061 -0.0444524 0)
(-0.108339 -0.05952 0)
(-0.0904871 -0.0699849 0)
(-0.069707 -0.0742064 0)
(-0.0477471 -0.0708435 0)
(-0.0268802 -0.0592051 0)
(-0.0102299 -0.0396374 0)
(-0.00171238 -0.0140298 0)
(-0.00209573 0.0199715 0)
(-0.0117286 0.0525471 0)
(-0.0298044 0.0755561 0)
(-0.0519508 0.0885348 0)
(-0.0751129 0.0921845 0)
(-0.0973254 0.087729 0)
(-0.11711 0.0765764 0)
(-0.133386 0.0601274 0)
(-0.145383 0.039695 0)
(-0.152543 0.016521 0)
(-0.154453 -0.00814306 0)
(-0.150825 -0.0329245 0)
(-0.141535 -0.0562237 0)
(-0.126722 -0.0761521 0)
(-0.106938 -0.0905594 0)
(-0.0833321 -0.0971972 0)
(-0.0577769 -0.0940487 0)
(-0.0329255 -0.0797998 0)
(-0.0126907 -0.0544026 0)
(-0.00216225 -0.0198032 0)
(-0.00252033 0.026558 0)
(-0.0138783 0.0685156 0)
(-0.0348586 0.0971871 0)
(-0.0601241 0.11262 0)
(-0.0860824 0.11621 0)
(-0.110588 0.109852 0)
(-0.132158 0.0955048 0)
(-0.149799 0.0749689 0)
(-0.162864 0.04982 0)
(-0.170888 0.0214587 0)
(-0.173488 -0.00875916 0)
(-0.170315 -0.0393518 0)
(-0.161094 -0.0685387 0)
(-0.145729 -0.0941096 0)
(-0.124514 -0.113392 0)
(-0.0984054 -0.123391 0)
(-0.0692721 -0.121162 0)
(-0.0401018 -0.104432 0)
(-0.0157259 -0.0724269 0)
(-0.00274771 -0.0269802 0)
(-0.00303703 0.0343575 0)
(-0.0163589 0.0871014 0)
(-0.0404415 0.1219 0)
(-0.0687693 0.139604 0)
(-0.0971707 0.14263 0)
(-0.123397 0.133797 0)
(-0.146078 0.115771 0)
(-0.164439 0.0908205 0)
(-0.178065 0.0607778 0)
(-0.186678 0.0271459 0)
(-0.189986 -0.00870722 0)
(-0.187609 -0.0453023 0)
(-0.179095 -0.0807897 0)
(-0.164033 -0.112718 0)
(-0.142308 -0.137897 0)
(-0.114472 -0.15246 0)
(-0.0821655 -0.152239 0)
(-0.0485575 -0.133533 0)
(-0.019491 -0.0943063 0)
(-0.00352317 -0.0359175 0)
(-0.00369181 0.0435862 0)
(-0.0192809 0.108569 0)
(-0.0466072 0.149713 0)
(-0.0776896 0.169149 0)
(-0.10777 0.170795 0)
(-0.13465 0.158731 0)
(-0.157265 0.136508 0)
(-0.175235 0.106921 0)
(-0.18853 0.0720329 0)
(-0.197177 0.0333638 0)
(-0.201061 -0.00783229 0)
(-0.199824 -0.0502344 0)
(-0.192841 -0.0920939 0)
(-0.179322 -0.130875 0)
(-0.158573 -0.16296 0)
(-0.130463 -0.183547 0)
(-0.096042 -0.186927 0)
(-0.0583327 -0.167351 0)
(-0.0241628 -0.12068 0)
(-0.00456732 -0.0470749 0)
(-0.00457423 0.0545562 0)
(-0.0228416 0.133201 0)
(-0.0534289 0.180441 0)
(-0.0865311 0.200502 0)
(-0.116894 0.199511 0)
(-0.142655 0.18323 0)
(-0.163348 0.156285 0)
(-0.179223 0.122021 0)
(-0.190812 0.0826664 0)
(-0.198576 0.0396378 0)
(-0.202681 -0.00608211 0)
(-0.202869 -0.0535243 0)
(-0.198391 -0.101272 0)
(-0.188053 -0.146956 0)
(-0.170441 -0.18675 0)
(-0.144425 -0.214984 0)
(-0.109947 -0.22416 0)
(-0.0692869 -0.205723 0)
(-0.0299605 -0.152155 0)
(-0.0060068 -0.0610527 0)
(-0.00586297 0.0677702 0)
(-0.0273998 0.161298 0)
(-0.061 0.213536 0)
(-0.0946622 0.232246 0)
(-0.122961 0.22678 0)
(-0.144881 0.205076 0)
(-0.160966 0.172963 0)
(-0.172373 0.134285 0)
(-0.18036 0.0913032 0)
(-0.185932 0.04517 0)
(-0.189627 -0.00357878 0)
(-0.191381 -0.0545365 0)
(-0.190422 -0.106888 0)
(-0.185221 -0.158777 0)
(-0.173598 -0.206553 0)
(-0.153141 -0.243989 0)
(-0.122059 -0.261748 0)
(-0.0809394 -0.247705 0)
(-0.0371607 -0.189165 0)
(-0.00805588 -0.0786661 0)
(-0.0079024 0.0840992 0)
(-0.0335587 0.193132 0)
(-0.0693123 0.247784 0)
(-0.100821 0.261918 0)
(-0.123321 0.249493 0)
(-0.137484 0.22106 0)
(-0.145386 0.183614 0)
(-0.14934 0.141283 0)
(-0.151418 0.0961237 0)
(-0.153183 0.0488296 0)
(-0.155573 -0.000678723 0)
(-0.158803 -0.052738 0)
(-0.162235 -0.107392 0)
(-0.164206 -0.163693 0)
(-0.161921 -0.218733 0)
(-0.151599 -0.26637 0)
(-0.129132 -0.295845 0)
(-0.0921048 -0.290981 0)
(-0.0460547 -0.231667 0)
(-0.0110707 -0.101061 0)
(-0.0112945 0.105058 0)
(-0.0421395 0.228703 0)
(-0.0777364 0.28069 0)
(-0.102194 0.285426 0)
(-0.113232 0.263078 0)
(-0.11443 0.226899 0)
(-0.109889 0.184624 0)
(-0.103145 0.140179 0)
(-0.0969563 0.0950545 0)
(-0.0932848 0.0492706 0)
(-0.0933628 0.0020218 0)
(-0.0977067 -0.0478519 0)
(-0.105997 -0.101403 0)
(-0.116795 -0.158938 0)
(-0.127154 -0.21896 0)
(-0.132269 -0.276457 0)
(-0.125506 -0.320394 0)
(-0.100051 -0.330952 0)
(-0.0566469 -0.278479 0)
(-0.0155599 -0.129821 0)
(-0.016838 0.133241 0)
(-0.0535565 0.266968 0)
(-0.0833468 0.307253 0)
(-0.0922563 0.296222 0)
(-0.0838887 0.261275 0)
(-0.0660331 0.217472 0)
(-0.0448839 0.172174 0)
(-0.0247968 0.12828 0)
(-0.00870945 0.0862503 0)
(0.00145625 0.0452602 0)
(0.00446203 0.00379847 0)
(-0.000414896 -0.0400102 0)
(-0.0133288 -0.0881474 0)
(-0.0335392 -0.142291 0)
(-0.058761 -0.20293 0)
(-0.0841984 -0.267483 0)
(-0.101448 -0.32675 0)
(-0.0986063 -0.359469 0)
(-0.0674921 -0.326005 0)
(-0.0218728 -0.167108 0)
(-0.0246166 0.17328 0)
(-0.0651414 0.303677 0)
(-0.0763532 0.317339 0)
(-0.0561763 0.28399 0)
(-0.0190105 0.236148 0)
(0.0230781 0.187581 0)
(0.0630079 0.143264 0)
(0.0968437 0.104019 0)
(0.122468 0.0688956 0)
(0.138712 0.0362379 0)
(0.144787 0.0040683 0)
(0.139991 -0.0298353 0)
(0.123657 -0.0679636 0)
(0.0954031 -0.11304 0)
(0.0558249 -0.167622 0)
(0.00792495 -0.23265 0)
(-0.0405566 -0.303647 0)
(-0.074368 -0.363008 0)
(-0.0724245 -0.365745 0)
(-0.0286831 -0.216074 0)
(-0.0292927 0.230165 0)
(-0.0623186 0.32468 0)
(-0.0292766 0.291573 0)
(0.0375805 0.234364 0)
(0.109893 0.179932 0)
(0.175833 0.134379 0)
(0.231073 0.0978957 0)
(0.274283 0.0686417 0)
(0.30544 0.044392 0)
(0.324856 0.0230713 0)
(0.332617 0.00275316 0)
(0.328321 -0.0185204 0)
(0.310951 -0.0429982 0)
(0.278904 -0.0735368 0)
(0.230368 -0.113867 0)
(0.16451 -0.16829 0)
(0.0839208 -0.239402 0)
(0.000276896 -0.321113 0)
(-0.0525448 -0.37738 0)
(-0.0272765 -0.276178 0)
(0.00646672 0.275442 0)
(0.0146967 0.288787 0)
(0.12732 0.207503 0)
(0.248715 0.142485 0)
(0.346336 0.0975646 0)
(0.421162 0.0666978 0)
(0.477308 0.0453573 0)
(0.517976 0.0301597 0)
(0.545755 0.0186932 0)
(0.562462 0.00928626 0)
(0.569025 0.000687713 0)
(0.565454 -0.00822484 0)
(0.550757 -0.0187361 0)
(0.522726 -0.0326856 0)
(0.477696 -0.0530854 0)
(0.410441 -0.084992 0)
(0.313801 -0.136212 0)
(0.182432 -0.215773 0)
(0.0495632 -0.315309 0)
(0.023778 -0.304779 0)
(0.29811 0.144457 0)
(0.391723 0.126631 0)
(0.548666 0.0765753 0)
(0.66506 0.0447409 0)
(0.734931 0.0265686 0)
(0.778747 0.0160083 0)
(0.807639 0.00974918 0)
(0.82668 0.00589304 0)
(0.838727 0.00333469 0)
(0.84544 0.00143759 0)
(0.847624 -0.00019181 0)
(0.845431 -0.00185513 0)
(0.838374 -0.00388363 0)
(0.825118 -0.00679745 0)
(0.80298 -0.0116017 0)
(0.766773 -0.0203797 0)
(0.704766 -0.0374083 0)
(0.591604 -0.0707033 0)
(0.423718 -0.126815 0)
(0.313478 -0.149801 0)
)
;

boundaryField
{
    movingWall
    {
        type            fixedValue;
        value           uniform (1 0 0);
    }
    fixedWalls
    {
        type            noSlip;
    }
    frontAndBack
    {
        type            empty;
    }
}


// ************************************************************************* //
