/*--------------------------------*- C++ -*----------------------------------*\
  =========                 |
  \\      /  F ield         | OpenFOAM: The Open Source CFD Toolbox
   \\    /   O peration     | Website:  https://openfoam.org
    \\  /    A nd           | Version:  6
     \\/     M anipulation  |
\*---------------------------------------------------------------------------*/
FoamFile
{
    version     2.0;
    format      ascii;
    class       volScalarField;
    location    "0.205";
    object      p;
}
// * * * * * * * * * * * * * * * * * * * * * * * * * * * * * * * * * * * * * //

dimensions      [0 2 -2 0 0 0 0];

internalField   nonuniform List<scalar> 
400
(
-3.41078e-08
-0.000287928
-0.000540448
-0.000624049
-0.000496985
-0.000150101
0.000410511
0.00117081
0.00210999
0.00319715
0.00438641
0.00561343
0.00679535
0.00783658
0.00864177
0.00913596
0.0092888
0.00913528
0.00878733
0.0084528
0.000287293
-1.02836e-05
-0.00019359
-0.00021149
-5.76892e-05
0.000276423
0.000790942
0.00147787
0.00232156
0.0032958
0.00436016
0.00545758
0.0065151
0.00744956
0.00817942
0.00864263
0.00881749
0.00873497
0.00846409
0.00812527
0.000552413
0.000152328
-4.43994e-05
-4.71344e-05
0.000110564
0.000430056
0.000912597
0.0015541
0.00234432
0.00326289
0.0042749
0.00532799
0.00635231
0.00726547
0.00798404
0.00844202
0.00861345
0.0085223
0.00820733
0.00774778
0.000645284
0.000121728
-0.000123949
-0.00014012
6.55497e-06
0.000309924
0.000771214
0.0013898
0.00216122
0.0030716
0.00409155
0.00517152
0.0062398
0.00720619
0.00797349
0.00845867
0.00862154
0.00847821
0.00805404
0.00742781
0.00048474
-0.000153918
-0.000454387
-0.000493232
-0.000363561
-7.69459e-05
0.000368941
0.000977965
0.00175264
0.00268686
0.00375784
0.00491881
0.00609412
0.00718028
0.00805704
0.0086126
0.008782
0.00857008
0.0079995
0.00717594
1.23313e-05
-0.000733966
-0.00109034
-0.00115619
-0.00104706
-0.000778237
-0.000344991
0.000262488
0.00105548
0.00203804
0.00319669
0.00448987
0.00583849
0.00712225
0.00818835
0.00888077
0.00909286
0.00880721
0.00804531
0.00696284
-0.000819869
-0.00167302
-0.00208743
-0.00218416
-0.0021004
-0.00185464
-0.00143882
-0.000835733
-2.29109e-05
0.00101758
0.00228693
0.00375509
0.00534505
0.00692044
0.00828703
0.00922356
0.00955264
0.00920811
0.00819476
0.0067393
-0.00205749
-0.00302357
-0.00350051
-0.00363366
-0.00358443
-0.00337553
-0.0029956
-0.00241901
-0.00160956
-0.000530451
0.000842565
0.00250331
0.00439125
0.00636487
0.00818571
0.0095413
0.0101356
0.00979765
0.00846571
0.00645234
-0.00374984
-0.0048413
-0.00538772
-0.00556507
-0.00556543
-0.00541887
-0.00511233
-0.00461216
-0.0038671
-0.00281669
-0.0014029
0.000411335
0.00261056
0.00507951
0.00755224
0.00960331
0.0107465
0.0105977
0.00890989
0.00606868
-0.00595368
-0.00718872
-0.00781169
-0.0080405
-0.00810942
-0.00806189
-0.00788718
-0.00754694
-0.00697694
-0.00609175
-0.00479012
-0.00296728
-0.000547695
0.00244483
0.00577804
0.00892366
0.0111197
0.0115828
0.00963037
0.00561856
-0.00873742
-0.0101393
-0.0108397
-0.011118
-0.0112698
-0.0113617
-0.011392
-0.0113253
-0.0110927
-0.0105903
-0.00967245
-0.00814496
-0.00578294
-0.00241295
0.00190159
0.00662549
0.010672
0.0125869
0.010789
0.00528796
-0.0121904
-0.0137855
-0.0145438
-0.014842
-0.0150679
-0.0153244
-0.0156281
-0.0159574
-0.0162543
-0.0164147
-0.0162621
-0.0155068
-0.0137217
-0.0104057
-0.00523756
0.0014813
0.00843453
0.0132134
0.0126165
0.00562437
-0.0164455
-0.0182556
-0.0190026
-0.0192291
-0.0194655
-0.0198648
-0.0204684
-0.0212805
-0.0222728
-0.0233678
-0.024387
-0.0249628
-0.0244435
-0.0218928
-0.0163618
-0.00753773
0.00338867
0.0129679
0.0155365
0.00796373
-0.0217335
-0.0237481
-0.0243031
-0.0242475
-0.0243312
-0.0247629
-0.0256051
-0.0268915
-0.0286373
-0.0308142
-0.0332724
-0.0355985
-0.0369348
-0.0358799
-0.030703
-0.0200959
-0.00453103
0.0118959
0.0205942
0.0150662
-0.0285093
-0.0305939
-0.0305338
-0.0297797
-0.0293994
-0.0296305
-0.0305285
-0.0321437
-0.0345304
-0.0377107
-0.0415698
-0.0456653
-0.0489707
-0.0496756
-0.0452959
-0.03338
-0.0131318
0.011656
0.0301153
0.0314832
-0.0377398
-0.0393582
-0.0377353
-0.035545
-0.0342157
-0.0338941
-0.0345614
-0.0362464
-0.0390107
-0.0428918
-0.0477718
-0.0531483
-0.0578299
-0.0596735
-0.0556081
-0.0422289
-0.0173637
0.0165298
0.0483211
0.0632323
-0.0516327
-0.0509905
-0.045802
-0.0410257
-0.0381155
-0.0368336
-0.0369693
-0.0384612
-0.0413131
-0.0455047
-0.0508311
-0.0566455
-0.0615324
-0.0630201
-0.0575655
-0.0410888
-0.0103808
0.0338627
0.0827172
0.119141
-0.0761827
-0.0669173
-0.0542592
-0.0453312
-0.0401203
-0.037534
-0.036991
-0.0382091
-0.0410237
-0.0452589
-0.0505287
-0.0559528
-0.0598143
-0.0592535
-0.0501944
-0.0277898
0.0122917
0.0715651
0.145947
0.218527
-0.130172
-0.0871281
-0.0583138
-0.0439661
-0.0367309
-0.0333586
-0.0327367
-0.0342344
-0.0374042
-0.0418632
-0.0470365
-0.0518286
-0.0542702
-0.0511803
-0.037947
-0.00854983
0.0439367
0.12636
0.245605
0.392275
-0.255255
-0.102752
-0.04272
-0.027462
-0.0225114
-0.0209754
-0.0221393
-0.0253124
-0.0298481
-0.0352749
-0.0409844
-0.0458516
-0.0478858
-0.0438912
-0.0291317
0.00320917
0.0632951
0.168364
0.345648
0.616294
)
;

boundaryField
{
    movingWall
    {
        type            zeroGradient;
    }
    fixedWalls
    {
        type            zeroGradient;
    }
    frontAndBack
    {
        type            empty;
    }
}


// ************************************************************************* //
