/*--------------------------------*- C++ -*----------------------------------*\
  =========                 |
  \\      /  F ield         | OpenFOAM: The Open Source CFD Toolbox
   \\    /   O peration     | Website:  https://openfoam.org
    \\  /    A nd           | Version:  6
     \\/     M anipulation  |
\*---------------------------------------------------------------------------*/
FoamFile
{
    version     2.0;
    format      ascii;
    class       volVectorField;
    location    "0.205";
    object      U;
}
// * * * * * * * * * * * * * * * * * * * * * * * * * * * * * * * * * * * * * //

dimensions      [0 1 -1 0 0 0 0];

internalField   nonuniform List<vector> 
400
(
(7.3448e-05 -7.51448e-05 0)
(-0.000229281 0.000214394 0)
(-0.0013095 0.000468202 0)
(-0.00287763 0.000604381 0)
(-0.00465355 0.000650356 0)
(-0.00644887 0.000636742 0)
(-0.00813281 0.000582615 0)
(-0.00960597 0.000496267 0)
(-0.0107812 0.000378576 0)
(-0.0115725 0.000227611 0)
(-0.0118941 4.32688e-05 0)
(-0.0116707 -0.00016853 0)
(-0.0108565 -0.000392406 0)
(-0.00946033 -0.00060166 0)
(-0.00757207 -0.000759348 0)
(-0.0053801 -0.000823767 0)
(-0.00316843 -0.000758536 0)
(-0.00128832 -0.000544563 0)
(-0.000110223 -0.000200647 0)
(0.000128738 0.00011998 0)
(-0.000219763 0.000223226 0)
(-0.00157526 0.00154055 0)
(-0.00446971 0.00261381 0)
(-0.0082945 0.00321535 0)
(-0.0125172 0.00341872 0)
(-0.0167535 0.0033272 0)
(-0.0207028 0.00301619 0)
(-0.0241223 0.00252598 0)
(-0.026802 0.00187047 0)
(-0.0285476 0.00105385 0)
(-0.0291804 8.91673e-05 0)
(-0.0285571 -0.000984435 0)
(-0.0266055 -0.00208799 0)
(-0.0233716 -0.00309653 0)
(-0.0190658 -0.00384597 0)
(-0.0140916 -0.00415892 0)
(-0.0090303 -0.00389015 0)
(-0.00456981 -0.00298301 0)
(-0.00142443 -0.00154541 0)
(-0.000134833 -7.65674e-05 0)
(-0.000516049 0.00135275 0)
(-0.00286581 0.00449795 0)
(-0.00733128 0.00686964 0)
(-0.0129541 0.00820115 0)
(-0.0190222 0.00862811 0)
(-0.0250447 0.00834919 0)
(-0.0306236 0.00752261 0)
(-0.035429 0.00624284 0)
(-0.0391747 0.00455372 0)
(-0.0415982 0.00248096 0)
(-0.0424617 7.081e-05 0)
(-0.0415759 -0.00257271 0)
(-0.0388446 -0.00525842 0)
(-0.034325 -0.00769526 0)
(-0.0282903 -0.0095092 0)
(-0.0212705 -0.0103024 0)
(-0.0140343 -0.00975759 0)
(-0.0074969 -0.00776875 0)
(-0.00265053 -0.00458572 0)
(-0.000389598 -0.00106153 0)
(-0.000740829 0.00314542 0)
(-0.00391532 0.00875849 0)
(-0.00972608 0.0127136 0)
(-0.0168602 0.014874 0)
(-0.0244375 0.0155035 0)
(-0.0318947 0.0149264 0)
(-0.0387802 0.0134001 0)
(-0.0447177 0.0110824 0)
(-0.0493769 0.00805215 0)
(-0.0524488 0.00435994 0)
(-0.053643 8.96345e-05 0)
(-0.0527129 -0.00458025 0)
(-0.0495077 -0.00932594 0)
(-0.0440474 -0.0136538 0)
(-0.0366106 -0.0169244 0)
(-0.0278047 -0.0184496 0)
(-0.0185662 -0.017671 0)
(-0.0100625 -0.0143889 0)
(-0.00362728 -0.00898323 0)
(-0.000552827 -0.00263431 0)
(-0.000914857 0.00544333 0)
(-0.00478145 0.0140776 0)
(-0.0117663 0.0198539 0)
(-0.0202307 0.0229021 0)
(-0.0291366 0.0236983 0)
(-0.0378661 0.0227356 0)
(-0.0459408 0.0203892 0)
(-0.0529656 0.0168843 0)
(-0.0585879 0.0123295 0)
(-0.0624616 0.00678897 0)
(-0.0642363 0.000369851 0)
(-0.0635796 -0.00668667 0)
(-0.0602343 -0.0139245 0)
(-0.054114 -0.0206236 0)
(-0.0454316 -0.025819 0)
(-0.034827 -0.0284339 0)
(-0.0234184 -0.0275511 0)
(-0.0127182 -0.0227829 0)
(-0.0045424 -0.014618 0)
(-0.000666918 -0.00464241 0)
(-0.00106414 0.00816468 0)
(-0.00555276 0.0203356 0)
(-0.0136206 0.0281766 0)
(-0.0233303 0.0321858 0)
(-0.0334981 0.0331357 0)
(-0.0434664 0.0317397 0)
(-0.052752 0.0285141 0)
(-0.0609646 0.0237536 0)
(-0.0677483 0.0175831 0)
(-0.0727269 0.010054 0)
(-0.0754793 0.00126207 0)
(-0.0755499 -0.00852494 0)
(-0.0725069 -0.0187417 0)
(-0.0660608 -0.0284292 0)
(-0.0562517 -0.0362223 0)
(-0.0436728 -0.0405039 0)
(-0.0296297 -0.0397933 0)
(-0.0161138 -0.0333371 0)
(-0.00567271 -0.021701 0)
(-0.000788125 -0.00708879 0)
(-0.00120916 0.01128 0)
(-0.00630833 0.0274877 0)
(-0.0154468 0.0376438 0)
(-0.0263962 0.0427038 0)
(-0.0378368 0.043823 0)
(-0.0490886 0.0419929 0)
(-0.0596877 0.0378981 0)
(-0.0692758 0.0319041 0)
(-0.0775177 0.0241312 0)
(-0.0840229 0.0145775 0)
(-0.0882954 0.00326915 0)
(-0.0897216 -0.00956813 0)
(-0.0876156 -0.02332 0)
(-0.0813562 -0.0368048 0)
(-0.0706454 -0.0481811 0)
(-0.055877 -0.0550799 0)
(-0.038488 -0.0551213 0)
(-0.0210953 -0.0468491 0)
(-0.00737409 -0.0308018 0)
(-0.000981386 -0.0101389 0)
(-0.00136535 0.0147992 0)
(-0.00711101 0.0355541 0)
(-0.0173703 0.0482804 0)
(-0.0296067 0.0544883 0)
(-0.0423679 0.0558129 0)
(-0.0549723 0.0535912 0)
(-0.0670054 0.0487091 0)
(-0.0781764 0.0416053 0)
(-0.0882075 0.0323708 0)
(-0.0967252 0.0208971 0)
(-0.103174 0.00705663 0)
(-0.106764 -0.00907711 0)
(-0.106479 -0.0269579 0)
(-0.101213 -0.0452578 0)
(-0.0901022 -0.0616146 0)
(-0.0730775 -0.07265 0)
(-0.0515221 -0.0745777 0)
(-0.0287559 -0.0646206 0)
(-0.0101319 -0.0429658 0)
(-0.00133678 -0.0141634 0)
(-0.00154522 0.0187628 0)
(-0.00801111 0.0446081 0)
(-0.0194852 0.060157 0)
(-0.0330768 0.0675972 0)
(-0.0471966 0.0691637 0)
(-0.0611855 0.0666207 0)
(-0.0747151 0.0610972 0)
(-0.0876059 0.0531133 0)
(-0.099688 0.0427064 0)
(-0.110658 0.0296002 0)
(-0.119946 0.0134073 0)
(-0.126601 -0.00610811 0)
(-0.129234 -0.0286595 0)
(-0.126113 -0.0529451 0)
(-0.115545 -0.0761247 0)
(-0.0966266 -0.0935655 0)
(-0.0702957 -0.0993997 0)
(-0.0404244 -0.0884916 0)
(-0.0146241 -0.0598557 0)
(-0.00199636 -0.0198203 0)
(-0.00176331 0.023238 0)
(-0.00905993 0.0547634 0)
(-0.0218721 0.0733641 0)
(-0.0368744 0.0820731 0)
(-0.052327 0.0838808 0)
(-0.0676204 0.0810811 0)
(-0.0825521 0.0750993 0)
(-0.0971016 0.0665531 0)
(-0.111265 0.0554094 0)
(-0.124878 0.0411661 0)
(-0.137437 0.0230574 0)
(-0.147901 0.000344658 0)
(-0.15454 -0.0272119 0)
(-0.154943 -0.0586282 0)
(-0.146384 -0.0907831 0)
(-0.126714 -0.117676 0)
(-0.0957977 -0.130639 0)
(-0.0574481 -0.120666 0)
(-0.021773 -0.0838524 0)
(-0.00319922 -0.0281813 0)
(-0.0020447 0.028326 0)
(-0.0103339 0.0661739 0)
(-0.0246317 0.0879903 0)
(-0.0410517 0.0978958 0)
(-0.0576829 0.0998457 0)
(-0.0739972 0.0967892 0)
(-0.0899562 0.0905095 0)
(-0.105737 0.0817466 0)
(-0.121551 0.0703941 0)
(-0.137448 0.0556824 0)
(-0.153093 0.0363624 0)
(-0.167501 0.0109954 0)
(-0.178764 -0.0214899 0)
(-0.183928 -0.0608217 0)
(-0.179239 -0.103997 0)
(-0.161022 -0.143839 0)
(-0.127298 -0.168422 0)
(-0.0805855 -0.163113 0)
(-0.0327269 -0.117987 0)
(-0.00535418 -0.0409168 0)
(-0.00244058 0.0341892 0)
(-0.011974 0.0790507 0)
(-0.0279337 0.104102 0)
(-0.0456854 0.114927 0)
(-0.0631307 0.116731 0)
(-0.079869 0.113262 0)
(-0.0960588 0.106721 0)
(-0.112093 0.0979975 0)
(-0.128417 0.0869252 0)
(-0.145346 0.0724606 0)
(-0.162831 0.0528191 0)
(-0.180151 0.0257254 0)
(-0.19555 -0.0109836 0)
(-0.205943 -0.0581711 0)
(-0.206933 -0.113549 0)
(-0.193391 -0.169424 0)
(-0.160853 -0.210873 0)
(-0.108837 -0.216319 0)
(-0.0485717 -0.165427 0)
(-0.00911285 -0.0605269 0)
(-0.00305809 0.0411139 0)
(-0.0142525 0.0937033 0)
(-0.0320833 0.121719 0)
(-0.0509136 0.132834 0)
(-0.0684809 0.133892 0)
(-0.0846018 0.129586 0)
(-0.0996692 0.122569 0)
(-0.114282 0.11389 0)
(-0.129104 0.103353 0)
(-0.144721 0.0896881 0)
(-0.161461 0.0706209 0)
(-0.17911 0.0430502 0)
(-0.196515 0.00362434 0)
(-0.211148 -0.0499753 0)
(-0.218785 -0.116879 0)
(-0.213476 -0.190072 0)
(-0.188172 -0.253018 0)
(-0.137838 -0.277385 0)
(-0.0693539 -0.227998 0)
(-0.0152934 -0.0904071 0)
(-0.00412011 0.0496394 0)
(-0.0176855 0.110604 0)
(-0.0375996 0.140754 0)
(-0.0569244 0.150961 0)
(-0.073393 0.150227 0)
(-0.0872389 0.144288 0)
(-0.0991634 0.136217 0)
(-0.109961 0.127203 0)
(-0.120466 0.117048 0)
(-0.131497 0.104357 0)
(-0.143788 0.0865448 0)
(-0.157808 0.0599052 0)
(-0.173438 0.0200759 0)
(-0.189473 -0.0367769 0)
(-0.202967 -0.111816 0)
(-0.208402 -0.200246 0)
(-0.197004 -0.28654 0)
(-0.158693 -0.338252 0)
(-0.0921707 -0.303389 0)
(-0.024344 -0.13422 0)
(-0.00608316 0.0608151 0)
(-0.0232189 0.130451 0)
(-0.0452525 0.160837 0)
(-0.0637474 0.168071 0)
(-0.0769586 0.163938 0)
(-0.0859667 0.15518 0)
(-0.0919449 0.145133 0)
(-0.0959149 0.135031 0)
(-0.0988451 0.124682 0)
(-0.101721 0.112694 0)
(-0.105612 0.0964377 0)
(-0.111667 0.0720189 0)
(-0.120966 0.0345475 0)
(-0.134113 -0.0209824 0)
(-0.150442 -0.0979661 0)
(-0.16651 -0.19522 0)
(-0.173859 -0.301596 0)
(-0.1587 -0.385894 0)
(-0.109286 -0.382417 0)
(-0.0350432 -0.194267 0)
(-0.0098407 0.0767607 0)
(-0.03245 0.154153 0)
(-0.0557764 0.180854 0)
(-0.0703107 0.181818 0)
(-0.0762744 0.172123 0)
(-0.0764112 0.159134 0)
(-0.0726392 0.146099 0)
(-0.066291 0.134094 0)
(-0.0584607 0.122863 0)
(-0.0502056 0.111093 0)
(-0.0427568 0.0963671 0)
(-0.0377059 0.0750711 0)
(-0.0370778 0.0424625 0)
(-0.0431666 -0.00686478 0)
(-0.0579308 -0.0779864 0)
(-0.0813809 -0.173775 0)
(-0.10824 -0.290463 0)
(-0.124527 -0.405436 0)
(-0.108505 -0.449029 0)
(-0.0426244 -0.269318 0)
(-0.0169285 0.102061 0)
(-0.0473866 0.18222 0)
(-0.0678026 0.197407 0)
(-0.0707146 0.187251 0)
(-0.0618819 0.169639 0)
(-0.0468171 0.151403 0)
(-0.0283159 0.134992 0)
(-0.00796775 0.12094 0)
(0.0131351 0.108742 0)
(0.0340548 0.0971329 0)
(0.0536707 0.0840534 0)
(0.0703468 0.0665212 0)
(0.081662 0.0405722 0)
(0.0843049 0.00137986 0)
(0.0742803 -0.0564859 0)
(0.0479216 -0.138751 0)
(0.00489757 -0.249956 0)
(-0.0458837 -0.38339 0)
(-0.0765408 -0.481583 0)
(-0.0375134 -0.350256 0)
(-0.0287165 0.146234 0)
(-0.0663856 0.210479 0)
(-0.0668013 0.19806 0)
(-0.0403878 0.171756 0)
(-0.0044209 0.146279 0)
(0.0336993 0.124343 0)
(0.0715027 0.10643 0)
(0.107942 0.0921176 0)
(0.142501 0.0804788 0)
(0.174807 0.070259 0)
(0.204235 0.0598297 0)
(0.229522 0.047044 0)
(0.248408 0.0291276 0)
(0.257344 0.00263354 0)
(0.251341 -0.0366905 0)
(0.224189 -0.0947236 0)
(0.169561 -0.181363 0)
(0.0859864 -0.308919 0)
(-0.000181189 -0.450687 0)
(-0.0043573 -0.406642 0)
(-0.0313207 0.215159 0)
(-0.0465288 0.214961 0)
(0.0231334 0.157809 0)
(0.103021 0.120222 0)
(0.173462 0.0945001 0)
(0.234309 0.0752278 0)
(0.287372 0.0607654 0)
(0.333876 0.0500245 0)
(0.374791 0.0418879 0)
(0.410835 0.0352784 0)
(0.442208 0.0291046 0)
(0.468304 0.0221329 0)
(0.487417 0.0128906 0)
(0.496418 -0.000392021 0)
(0.490367 -0.0199208 0)
(0.462134 -0.0490746 0)
(0.40145 -0.0958686 0)
(0.294232 -0.182916 0)
(0.150174 -0.323501 0)
(0.0899484 -0.367985 0)
(0.260709 0.132086 0)
(0.321063 0.116966 0)
(0.441319 0.0785539 0)
(0.541284 0.0536867 0)
(0.610501 0.0381231 0)
(0.660545 0.0275864 0)
(0.69916 0.0202922 0)
(0.729962 0.015265 0)
(0.755008 0.0117644 0)
(0.775626 0.00920558 0)
(0.792459 0.00710698 0)
(0.805401 0.00502333 0)
(0.813503 0.0024983 0)
(0.814867 -0.000960484 0)
(0.806352 -0.00591625 0)
(0.783181 -0.0132121 0)
(0.736663 -0.0249154 0)
(0.651343 -0.0477665 0)
(0.489813 -0.103125 0)
(0.35786 -0.149584 0)
)
;

boundaryField
{
    movingWall
    {
        type            fixedValue;
        value           uniform (1 0 0);
    }
    fixedWalls
    {
        type            noSlip;
    }
    frontAndBack
    {
        type            empty;
    }
}


// ************************************************************************* //
