/*--------------------------------*- C++ -*----------------------------------*\
  =========                 |
  \\      /  F ield         | OpenFOAM: The Open Source CFD Toolbox
   \\    /   O peration     | Website:  https://openfoam.org
    \\  /    A nd           | Version:  6
     \\/     M anipulation  |
\*---------------------------------------------------------------------------*/
FoamFile
{
    version     2.0;
    format      ascii;
    class       volScalarField;
    location    "0.07";
    object      p;
}
// * * * * * * * * * * * * * * * * * * * * * * * * * * * * * * * * * * * * * //

dimensions      [0 2 -2 0 0 0 0];

internalField   nonuniform List<scalar> 
400
(
-1.98759e-07
-0.00551538
-0.0122999
-0.0174063
-0.0191729
-0.0168746
-0.0104642
-0.000375809
0.012624
0.0275362
0.0432036
0.058381
0.0718159
0.082352
0.0890611
0.091408
0.0894466
0.0840273
0.0770151
0.0714924
0.00544986
-0.000225313
-0.00553919
-0.00902226
-0.00988346
-0.00761491
-0.00215138
0.00619749
0.0168516
0.0290318
0.04182
0.0542215
0.0652391
0.0739632
0.0796788
0.0819903
0.0809649
0.0772104
0.0716953
0.0660338
0.0126295
0.00475116
-0.00100336
-0.00419928
-0.00486718
-0.00274592
0.00215887
0.00955293
0.018937
0.0296514
0.0409151
0.0518741
0.0616632
0.0694816
0.0746812
0.0768668
0.0760232
0.072509
0.0664928
0.0586057
0.0190654
0.00816454
0.000999308
-0.00265849
-0.00352319
-0.00155576
0.00313331
0.0102048
0.019171
0.0294194
0.0402292
0.0508042
0.0603193
0.067984
0.0731164
0.0752339
0.0741904
0.0701247
0.0625636
0.0515559
0.0231688
0.00907561
0.000218503
-0.00411468
-0.00523065
-0.00328561
0.00150028
0.00872068
0.0178684
0.0283414
0.0394394
0.0503787
0.0603242
0.0684404
0.0739539
0.0762442
0.0750062
0.0701739
0.0607221
0.046318
0.0237625
0.00641432
-0.00421373
-0.00922634
-0.010475
-0.00829634
-0.00302286
0.00485876
0.0148023
0.026193
0.0383243
0.0503943
0.0615213
0.0707807
0.0772596
0.0801502
0.078952
0.073385
0.0619015
0.0438891
0.0198001
-0.00089015
-0.0132706
-0.0188169
-0.019932
-0.0171392
-0.0108929
-0.00177138
0.0096285
0.0226676
0.03662
0.0506486
0.0638011
0.0750304
0.0832367
0.0873689
0.0866744
0.080613
0.0670657
0.0451596
0.0101725
-0.0139952
-0.0280239
-0.0338039
-0.0343586
-0.0304329
-0.0226237
-0.0116126
0.00194996
0.0174024
0.0340035
0.0508822
0.0670091
0.0811927
0.0921039
0.0983806
0.0989335
0.0928648
0.0773419
0.0511632
-0.00644344
-0.0342732
-0.0497397
-0.0552629
-0.0546313
-0.0488816
-0.0387889
-0.0251505
-0.00866489
0.0100028
0.0301204
0.0508075
0.0709739
0.0892811
0.104136
0.113789
0.116695
0.111436
0.0942047
0.0632986
-0.0317231
-0.0634356
-0.0799502
-0.084441
-0.081712
-0.0732095
-0.0599397
-0.0428274
-0.0225998
0.000112968
0.0246384
0.0501415
0.0755193
0.0993147
0.119657
0.134331
0.141186
0.138037
0.119674
0.0835633
-0.0678818
-0.103697
-0.120532
-0.122742
-0.116566
-0.104037
-0.0864598
-0.064892
-0.0400496
-0.0124605
0.0173459
0.0486727
0.080498
0.111322
0.139027
0.160878
0.173944
0.174934
0.156571
0.11487
-0.118012
-0.158038
-0.173805
-0.171679
-0.160014
-0.141681
-0.118349
-0.0911846
-0.0608179
-0.027569
0.00830072
0.0463725
0.085857
0.12536
0.162628
0.194417
0.216863
0.225136
0.208893
0.161558
-0.186769
-0.230639
-0.242638
-0.232745
-0.212486
-0.185859
-0.15492
-0.120855
-0.0840662
-0.0445046
-0.00199026
0.0435295
0.0917178
0.141532
0.190822
0.235991
0.272193
0.292592
0.282377
0.230312
-0.281855
-0.327624
-0.3305
-0.307102
-0.273577
-0.235246
-0.194411
-0.152043
-0.108059
-0.0618034
-0.0124252
0.0408425
0.098404
0.159929
0.223797
0.286479
0.342372
0.382339
0.385379
0.331989
-0.417169
-0.45819
-0.441186
-0.394814
-0.341245
-0.286808
-0.23351
-0.181577
-0.130004
-0.0771835
-0.0213176
0.0393464
0.106287
0.180354
0.261122
0.345974
0.429383
0.500277
0.530059
0.485173
-0.618509
-0.635746
-0.577854
-0.493571
-0.410759
-0.335133
-0.267052
-0.204957
-0.146212
-0.0878141
-0.0267238
0.0400487
0.115376
0.201812
0.301038
0.4128
0.533523
0.652105
0.73315
0.721749
-0.933963
-0.878204
-0.741286
-0.597732
-0.474409
-0.372634
-0.288602
-0.21715
-0.152977
-0.0911805
-0.0272414
0.0432178
0.124686
0.221922
0.339841
0.482732
0.652155
0.841269
1.01567
1.09624
-1.47365
-1.20828
-0.920593
-0.691496
-0.517781
-0.387991
-0.290228
-0.213114
-0.147481
-0.0862007
-0.0232999
0.0468512
0.13029
0.234246
0.368009
0.54321
0.771236
1.05924
1.40525
1.72731
-2.5313
-1.63918
-1.04619
-0.711402
-0.496567
-0.352881
-0.255012
-0.183647
-0.125768
-0.0727553
-0.0180894
0.0441699
0.12063
0.220083
0.355895
0.548737
0.826657
1.23829
1.92099
2.91484
-4.3495
-2.04857
-0.974576
-0.564187
-0.359695
-0.242103
-0.171693
-0.124742
-0.0877176
-0.0530169
-0.0155102
0.0292947
0.0865387
0.163749
0.274303
0.443548
0.718755
1.22627
2.41454
4.82992
)
;

boundaryField
{
    movingWall
    {
        type            zeroGradient;
    }
    fixedWalls
    {
        type            zeroGradient;
    }
    frontAndBack
    {
        type            empty;
    }
}


// ************************************************************************* //
