/*--------------------------------*- C++ -*----------------------------------*\
  =========                 |
  \\      /  F ield         | OpenFOAM: The Open Source CFD Toolbox
   \\    /   O peration     | Website:  https://openfoam.org
    \\  /    A nd           | Version:  6
     \\/     M anipulation  |
\*---------------------------------------------------------------------------*/
FoamFile
{
    version     2.0;
    format      ascii;
    class       surfaceScalarField;
    location    "0.07";
    object      phi;
}
// * * * * * * * * * * * * * * * * * * * * * * * * * * * * * * * * * * * * * //

dimensions      [0 3 -1 0 0 0 0];

internalField   nonuniform List<scalar> 
760
(
1.33934e-08
-1.33925e-08
-2.18143e-08
3.52082e-08
-1.10134e-07
8.83196e-08
-2.35633e-07
1.25499e-07
-3.79413e-07
1.4378e-07
-5.2367e-07
1.44257e-07
-6.53125e-07
1.29455e-07
-7.55564e-07
1.02439e-07
-8.21943e-07
6.63788e-08
-8.46416e-07
2.44729e-08
-8.26455e-07
-1.99614e-08
-7.63083e-07
-6.33724e-08
-6.61172e-07
-1.01911e-07
-5.29697e-07
-1.31475e-07
-3.81774e-07
-1.47923e-07
-2.34264e-07
-1.47511e-07
-1.06594e-07
-1.2767e-07
-1.85074e-08
-8.80857e-08
1.47505e-08
-3.32574e-08
1.47507e-08
-3.29818e-08
1.95889e-08
-1.7301e-07
1.75236e-07
-4.15429e-07
3.30739e-07
-7.30895e-07
4.40965e-07
-1.08166e-06
4.9454e-07
-1.42955e-06
4.92154e-07
-1.74024e-06
4.40143e-07
-1.98537e-06
3.47564e-07
-2.14359e-06
2.24608e-07
-2.20118e-06
8.20601e-08
-2.15244e-06
-6.87073e-08
-2.00022e-06
-2.15583e-07
-1.75645e-06
-3.45687e-07
-1.44224e-06
-4.45679e-07
-1.08757e-06
-5.02601e-07
-7.29622e-07
-5.05454e-07
-4.09571e-07
-4.4772e-07
-1.66869e-07
-3.30788e-07
-3.00304e-08
-1.70096e-07
-1.52798e-08
-8.83271e-08
1.07916e-07
-3.41569e-07
4.28476e-07
-7.3115e-07
7.2032e-07
-1.2125e-06
9.22315e-07
-1.73387e-06
1.01592e-06
-2.24366e-06
1.00194e-06
-2.69522e-06
8.91698e-07
-3.04976e-06
7.02105e-07
-3.27797e-06
4.52821e-07
-3.36095e-06
1.65037e-07
-3.2909e-06
-1.38755e-07
-3.07183e-06
-4.34657e-07
-2.72007e-06
-6.97447e-07
-2.26447e-06
-9.01275e-07
-1.74571e-06
-1.02137e-06
-1.21409e-06
-1.03707e-06
-7.25364e-07
-9.36443e-07
-3.34036e-07
-7.22115e-07
-8.42764e-08
-4.19857e-07
-9.95562e-08
-1.39003e-07
2.46919e-07
-5.03279e-07
7.92752e-07
-1.03607e-06
1.25311e-06
-1.67368e-06
1.55992e-06
-2.35013e-06
1.69237e-06
-3.00261e-06
1.65441e-06
-3.5755e-06
1.4646e-06
-4.02306e-06
1.14966e-06
-4.31081e-06
7.40572e-07
-4.41648e-06
2.70703e-07
-4.33068e-06
-2.24548e-07
-4.0577e-06
-7.07638e-07
-3.61618e-06
-1.13897e-06
-3.03953e-06
-1.47792e-06
-2.37552e-06
-1.68538e-06
-1.68429e-06
-1.72829e-06
-1.03436e-06
-1.58637e-06
-4.962e-07
-1.26028e-06
-1.3424e-07
-7.81817e-07
-2.33796e-07
-1.85896e-07
4.32815e-07
-6.58417e-07
1.26527e-06
-1.33229e-06
1.92698e-06
-2.12232e-06
2.34995e-06
-2.94717e-06
2.51722e-06
-3.73335e-06
2.4406e-06
-4.41805e-06
2.14929e-06
-4.95064e-06
1.68226e-06
-5.29344e-06
1.08337e-06
-5.422e-06
3.99257e-07
-5.32554e-06
-3.21008e-07
-5.00772e-06
-1.02546e-06
-4.48764e-06
-1.65905e-06
-3.80089e-06
-2.16467e-06
-2.99996e-06
-2.48631e-06
-2.15331e-06
-2.57494e-06
-1.34231e-06
-2.39738e-06
-6.55565e-07
-1.94702e-06
-1.81363e-07
-1.25602e-06
-4.1516e-07
-2.31652e-07
6.64467e-07
-8.12224e-07
1.84584e-06
-1.62753e-06
2.74228e-06
-2.5691e-06
3.29152e-06
-3.53922e-06
3.48734e-06
-4.45401e-06
3.35539e-06
-5.2447e-06
2.93999e-06
-5.85762e-06
2.29518e-06
-6.25346e-06
1.47921e-06
-6.40663e-06
5.52426e-07
-6.30505e-06
-4.22587e-07
-5.95082e-06
-1.37969e-06
-5.36166e-06
-2.2482e-06
-4.573e-06
-2.95333e-06
-3.63987e-06
-3.41944e-06
-2.63782e-06
-3.57699e-06
-1.6615e-06
-3.3737e-06
-8.20089e-07
-2.78844e-06
-2.29203e-07
-1.8469e-06
-6.44362e-07
-2.78838e-07
9.43304e-07
-9.70455e-07
2.53746e-06
-1.92958e-06
3.70141e-06
-3.02252e-06
4.38446e-06
-4.13441e-06
4.59923e-06
-5.17167e-06
4.39265e-06
-6.06133e-06
3.82965e-06
-6.74881e-06
2.98265e-06
-7.19517e-06
1.92557e-06
-7.3749e-06
7.32159e-07
-7.27483e-06
-5.22657e-07
-6.8945e-06
-1.76002e-06
-6.24818e-06
-2.89452e-06
-5.3683e-06
-3.83322e-06
-4.30953e-06
-4.47821e-06
-3.15246e-06
-4.73406e-06
-2.00486e-06
-4.5213e-06
-9.98719e-07
-3.79458e-06
-2.81459e-07
-2.56416e-06
-9.25821e-07
-3.29721e-07
1.27302e-06
-1.13818e-06
3.34592e-06
-2.24432e-06
4.80756e-06
-3.48643e-06
5.62657e-06
-4.73219e-06
5.84499e-06
-5.88e-06
5.54046e-06
-6.85558e-06
4.80523e-06
-7.60664e-06
3.73372e-06
-8.09743e-06
2.41635e-06
-8.30439e-06
9.39119e-07
-8.21379e-06
-6.13254e-07
-7.82165e-06
-2.15216e-06
-7.13629e-06
-3.57989e-06
-6.18332e-06
-4.78619e-06
-5.01271e-06
-5.64881e-06
-3.70628e-06
-6.0405e-06
-2.38314e-06
-5.84443e-06
-1.19991e-06
-4.9778e-06
-3.41694e-07
-3.42238e-06
-1.26752e-06
-3.86451e-07
1.65948e-06
-1.31972e-06
4.27919e-06
-2.57496e-06
6.0628e-06
-3.95857e-06
7.01018e-06
-5.32121e-06
7.20763e-06
-6.5566e-06
6.77585e-06
-7.59388e-06
5.84252e-06
-8.3879e-06
4.52773e-06
-8.91014e-06
2.9386e-06
-9.14183e-06
1.17081e-06
-9.0698e-06
-6.85286e-07
-8.68574e-06
-2.53622e-06
-7.98906e-06
-4.27656e-06
-6.99368e-06
-5.78157e-06
-5.73837e-06
-6.90412e-06
-4.29956e-06
-7.4793e-06
-2.80329e-06
-7.3407e-06
-1.43119e-06
-6.3499e-06
-4.13449e-07
-4.44013e-06
-1.68096e-06
-4.51671e-07
2.11115e-06
-1.51953e-06
5.34704e-06
-2.92226e-06
7.46553e-06
-4.4295e-06
8.51742e-06
-5.8769e-06
8.65503e-06
-7.15956e-06
8.05851e-06
-8.21734e-06
6.9003e-06
-9.01914e-06
5.32953e-06
-9.54931e-06
3.46877e-06
-9.79771e-06
1.41921e-06
-9.75367e-06
-7.29334e-07
-9.40416e-06
-2.88572e-06
-8.73669e-06
-4.94403e-06
-7.74737e-06
-6.7709e-06
-6.45495e-06
-8.19653e-06
-4.92013e-06
-9.01413e-06
-3.26692e-06
-8.99391e-06
-1.69926e-06
-7.91756e-06
-5.00734e-07
-5.63866e-06
-2.1817e-06
-5.29621e-07
2.64077e-06
-1.74361e-06
6.56103e-06
-3.28478e-06
9.0067e-06
-4.88081e-06
1.01134e-05
-6.35782e-06
1.0132e-05
-7.62246e-06
9.32315e-06
-8.63608e-06
7.91392e-06
-9.39085e-06
6.0843e-06
-9.89103e-06
3.96895e-06
-1.01399e-05
1.66813e-06
-1.01322e-05
-7.37129e-07
-9.85037e-06
-3.16751e-06
-9.2676e-06
-5.5268e-06
-8.35574e-06
-7.68275e-06
-7.10247e-06
-9.4498e-06
-5.53771e-06
-1.05789e-05
-3.7679e-06
-1.07637e-05
-2.01028e-06
-9.67519e-06
-6.08917e-07
-7.04002e-06
-2.79061e-06
-6.27997e-07
3.26876e-06
-2.00143e-06
7.93446e-06
-3.6581e-06
1.06634e-05
-5.28087e-06
1.17362e-05
-6.69864e-06
1.15498e-05
-7.84617e-06
1.04707e-05
-8.72116e-06
8.7889e-06
-9.3502e-06
6.71334e-06
-9.76509e-06
4.38385e-06
-9.98772e-06
1.89075e-06
-1.00212e-05
-7.03686e-07
-9.84547e-06
-3.3432e-06
-9.41822e-06
-5.95405e-06
-8.68173e-06
-8.41924e-06
-7.5807e-06
-1.05508e-05
-6.09467e-06
-1.20649e-05
-4.28773e-06
-1.25707e-05
-2.36975e-06
-1.15932e-05
-7.46193e-07
-8.66357e-06
-3.53681e-06
-7.60969e-07
4.02973e-06
-2.30716e-06
9.48066e-06
-4.03021e-06
1.23864e-05
-5.57431e-06
1.32803e-05
-6.7965e-06
1.2772e-05
-7.68515e-06
1.13593e-05
-8.293e-06
9.39675e-06
-8.69244e-06
7.11278e-06
-8.94906e-06
4.64046e-06
-9.10702e-06
2.04871e-06
-9.18096e-06
-6.29745e-07
-9.15129e-06
-3.37287e-06
-8.96226e-06
-6.14308e-06
-8.5251e-06
-8.8564e-06
-7.73201e-06
-1.13439e-05
-6.49009e-06
-1.33068e-05
-4.78541e-06
-1.42753e-05
-2.78058e-06
-1.3598e-05
-9.25899e-07
-1.05183e-05
-4.46271e-06
-9.53605e-07
4.98334e-06
-2.67739e-06
1.12044e-05
-4.36644e-06
1.40755e-05
-5.65789e-06
1.45718e-05
-6.48458e-06
1.35987e-05
-6.9244e-06
1.17991e-05
-7.10475e-06
9.5771e-06
-7.15131e-06
7.15934e-06
-7.16455e-06
4.6537e-06
-7.21047e-06
2.09464e-06
-7.31653e-06
-5.23687e-07
-7.46777e-06
-3.22163e-06
-7.60191e-06
-6.00894e-06
-7.60528e-06
-8.85304e-06
-7.31652e-06
-1.16327e-05
-6.55221e-06
-1.40711e-05
-5.1761e-06
-1.56515e-05
-3.23542e-06
-1.55387e-05
-1.16937e-06
-1.25843e-05
-5.63208e-06
-1.24545e-06
6.22879e-06
-3.11428e-06
1.30733e-05
-4.56861e-06
1.55298e-05
-5.32871e-06
1.53319e-05
-5.48369e-06
1.37537e-05
-5.24282e-06
1.15583e-05
-4.8201e-06
9.15438e-06
-4.39014e-06
6.72938e-06
-4.07861e-06
4.34216e-06
-3.96519e-06
1.98122e-06
-4.08738e-06
-4.01503e-07
-4.43951e-06
-2.86949e-06
-4.96529e-06
-5.48317e-06
-5.54423e-06
-8.2741e-06
-5.97776e-06
-1.11991e-05
-5.99113e-06
-1.40578e-05
-5.285e-06
-1.63576e-05
-3.69106e-06
-1.71326e-05
-1.50542e-06
-1.47699e-05
-7.1375e-06
-1.6791e-06
7.90789e-06
-3.54131e-06
1.49355e-05
-4.37355e-06
1.6362e-05
-4.18133e-06
1.51396e-05
-3.32158e-06
1.28939e-05
-2.16235e-06
1.03991e-05
-9.89829e-07
7.98186e-06
2.6332e-10
5.73929e-06
6.83544e-07
3.65888e-06
9.85442e-07
1.67933e-06
8.67065e-07
-2.83126e-07
3.21469e-07
-2.3239e-06
-6.18106e-07
-4.54359e-06
-1.8563e-06
-7.0359e-06
-3.2003e-06
-9.85515e-06
-4.32161e-06
-1.29365e-05
-4.7514e-06
-1.59278e-05
-3.99257e-06
-1.78914e-05
-1.94861e-06
-1.68139e-05
-9.08611e-06
-2.2284e-06
1.01363e-05
-3.60966e-06
1.63167e-05
-3.12562e-06
1.5878e-05
-1.42351e-06
1.34375e-05
7.82813e-07
1.06876e-05
3.00623e-06
8.17564e-06
4.95821e-06
6.02987e-06
6.48389e-06
4.21361e-06
7.50468e-06
2.6381e-06
7.97901e-06
1.20499e-06
7.88046e-06
-1.84572e-07
7.18977e-06
-1.63321e-06
5.90058e-06
-3.2544e-06
4.04275e-06
-5.17807e-06
1.73194e-06
-7.54434e-06
-7.48226e-07
-1.04563e-05
-2.84442e-06
-1.38316e-05
-3.68291e-06
-1.70529e-05
-2.40873e-06
-1.80881e-05
-1.14948e-05
-2.54973e-06
1.2686e-05
-2.19395e-06
1.5961e-05
6.84165e-07
1.29999e-05
4.41037e-06
9.71134e-06
8.04484e-06
7.05313e-06
1.11829e-05
5.03756e-06
1.36826e-05
3.53017e-06
1.55191e-05
2.3771e-06
1.67077e-05
1.44949e-06
1.72648e-05
6.47897e-07
1.71894e-05
-1.09192e-07
1.64555e-05
-8.99259e-07
1.50116e-05
-1.81053e-06
1.27931e-05
-2.95953e-06
9.75986e-06
-4.51112e-06
5.98956e-06
-6.686e-06
1.86811e-06
-9.71015e-06
-1.57562e-06
-1.36092e-05
-2.43445e-06
-1.72293e-05
-1.39293e-05
-8.44007e-07
1.353e-05
4.06096e-06
1.1056e-05
1.02779e-05
6.7829e-06
1.57586e-05
4.2307e-06
2.01027e-05
2.70904e-06
2.33809e-05
1.75934e-06
2.57631e-05
1.14792e-06
2.74072e-05
7.33006e-07
2.84288e-05
4.27963e-07
2.88968e-05
1.79838e-07
2.8835e-05
-4.73885e-08
2.82203e-05
-2.84578e-07
2.69774e-05
-5.67551e-07
2.49681e-05
-9.50285e-07
2.19839e-05
-1.5269e-06
1.77665e-05
-2.46855e-06
1.21395e-05
-4.08318e-06
5.44711e-06
-6.91685e-06
-1.97653e-07
-1.15845e-05
-1.41269e-05
1.353e-05
2.4586e-05
3.13689e-05
3.55996e-05
3.83087e-05
4.0068e-05
4.12159e-05
4.19489e-05
4.23769e-05
4.25567e-05
4.25093e-05
4.22248e-05
4.16572e-05
4.07069e-05
3.918e-05
3.67115e-05
3.26283e-05
2.57114e-05
1.41269e-05
)
;

boundaryField
{
    movingWall
    {
        type            calculated;
        value           uniform 0;
    }
    fixedWalls
    {
        type            calculated;
        value           uniform 0;
    }
    frontAndBack
    {
        type            empty;
        value           nonuniform 0();
    }
}


// ************************************************************************* //
