/*--------------------------------*- C++ -*----------------------------------*\
  =========                 |
  \\      /  F ield         | OpenFOAM: The Open Source CFD Toolbox
   \\    /   O peration     | Website:  https://openfoam.org
    \\  /    A nd           | Version:  6
     \\/     M anipulation  |
\*---------------------------------------------------------------------------*/
FoamFile
{
    version     2.0;
    format      ascii;
    class       volVectorField;
    location    "0.07";
    object      U;
}
// * * * * * * * * * * * * * * * * * * * * * * * * * * * * * * * * * * * * * //

dimensions      [0 1 -1 0 0 0 0];

internalField   nonuniform List<vector> 
400
(
(0.000235537 -0.000232454 0)
(0.000121488 0.000116694 0)
(-0.00114129 0.000549669 0)
(-0.00334707 0.000854282 0)
(-0.00611447 0.00100612 0)
(-0.00906441 0.00101983 0)
(-0.0118607 0.000919212 0)
(-0.014226 0.000729584 0)
(-0.0159467 0.000474968 0)
(-0.0168733 0.000178254 0)
(-0.0169212 -0.000137371 0)
(-0.0160744 -0.000446937 0)
(-0.0143911 -0.000722712 0)
(-0.0120094 -0.000934102 0)
(-0.0091517 -0.00104876 0)
(-0.00612193 -0.00103553 0)
(-0.00329108 -0.000870329 0)
(-0.00106578 -0.000545315 0)
(0.000171531 -9.83599e-05 0)
(0.000249689 0.000244496 0)
(-8.3635e-05 -0.00014887 0)
(-0.0015569 0.00158994 0)
(-0.00545521 0.00347137 0)
(-0.0112113 0.0048182 0)
(-0.0180562 0.00548726 0)
(-0.0252141 0.00549792 0)
(-0.0319487 0.0049336 0)
(-0.0376247 0.00390453 0)
(-0.0417413 0.00252953 0)
(-0.0439452 0.00093121 0)
(-0.04404 -0.00076233 0)
(-0.0419952 -0.00241429 0)
(-0.037957 -0.00387767 0)
(-0.0322563 -0.00499792 0)
(-0.0254088 -0.00562178 0)
(-0.018098 -0.00561512 0)
(-0.0111248 -0.00489295 0)
(-0.00531853 -0.00346293 0)
(-0.00145698 -0.00152022 0)
(-5.23214e-05 0.000202469 0)
(-0.000514086 0.00105591 0)
(-0.00356035 0.00549749 0)
(-0.0101295 0.00977747 0)
(-0.0191145 0.012803 0)
(-0.0294017 0.0142569 0)
(-0.0399529 0.0141438 0)
(-0.0497752 0.0126305 0)
(-0.0580023 0.00996593 0)
(-0.0639469 0.00643663 0)
(-0.0671232 0.00234965 0)
(-0.0672614 -0.00196977 0)
(-0.0643206 -0.0061757 0)
(-0.0585025 -0.00990187 0)
(-0.0502598 -0.0127717 0)
(-0.0402945 -0.0144229 0)
(-0.0295328 -0.0145529 0)
(-0.0190531 -0.012989 0)
(-0.009972 -0.00978118 0)
(-0.00342884 -0.00535577 0)
(-0.000469315 -0.000930904 0)
(-0.000896744 0.00334002 0)
(-0.00545929 0.0117002 0)
(-0.0146576 0.019051 0)
(-0.0267405 0.0240718 0)
(-0.040209 0.026341 0)
(-0.0537894 0.0258865 0)
(-0.0662937 0.0229919 0)
(-0.0766961 0.0180829 0)
(-0.0841882 0.0116566 0)
(-0.0881994 0.00425148 0)
(-0.08841 -0.00356026 0)
(-0.0847658 -0.0111711 0)
(-0.077493 -0.0179409 0)
(-0.0671116 -0.0232151 0)
(-0.0544394 -0.0263675 0)
(-0.040572 -0.0268771 0)
(-0.0268084 -0.02444 0)
(-0.0145367 -0.0191107 0)
(-0.00531442 -0.0114893 0)
(-0.000839897 -0.00312292 0)
(-0.00123731 0.00659551 0)
(-0.00725149 0.0200767 0)
(-0.0190408 0.0311275 0)
(-0.0341694 0.0383662 0)
(-0.0507137 0.0413841 0)
(-0.0671593 0.0403127 0)
(-0.0821494 0.0356096 0)
(-0.0945408 0.0279188 0)
(-0.103447 0.0179804 0)
(-0.108247 0.00659064 0)
(-0.108584 -0.00540787 0)
(-0.104385 -0.0171217 0)
(-0.0958714 -0.0276082 0)
(-0.0835859 -0.0358976 0)
(-0.0684109 -0.0410518 0)
(-0.0515684 -0.0422704 0)
(-0.0345601 -0.0390449 0)
(-0.0190682 -0.031346 0)
(-0.00713363 -0.0198416 0)
(-0.00117375 -0.00627873 0)
(-0.00156314 0.0107694 0)
(-0.00901536 0.030601 0)
(-0.0234047 0.0460126 0)
(-0.0415808 0.0556833 0)
(-0.0611621 0.0593469 0)
(-0.0803859 0.0573457 0)
(-0.097744 0.0503906 0)
(-0.11201 0.0393961 0)
(-0.122256 0.0253759 0)
(-0.127838 0.00939879 0)
(-0.128377 -0.00741596 0)
(-0.12377 -0.023884 0)
(-0.114205 -0.0387469 0)
(-0.100204 -0.050691 0)
(-0.0826653 -0.0584133 0)
(-0.0628983 -0.0607532 0)
(-0.0425971 -0.0568907 0)
(-0.0237665 -0.0465883 0)
(-0.00899891 -0.0304593 0)
(-0.00150564 -0.0103721 0)
(-0.00190018 0.0158647 0)
(-0.0108362 0.0433051 0)
(-0.0278899 0.0637458 0)
(-0.0491433 0.076035 0)
(-0.0717247 0.0801941 0)
(-0.0936233 0.0769085 0)
(-0.113207 0.067241 0)
(-0.129209 0.0524387 0)
(-0.140704 0.0338175 0)
(-0.147058 0.0127209 0)
(-0.147886 -0.00946733 0)
(-0.143048 -0.0312876 0)
(-0.132667 -0.0511715 0)
(-0.117192 -0.0674427 0)
(-0.0974746 -0.0783779 0)
(-0.0748596 -0.0823564 0)
(-0.051205 -0.0781047 0)
(-0.028857 -0.0650121 0)
(-0.0110373 -0.0434873 0)
(-0.0018712 -0.015454 0)
(-0.00227146 0.0219336 0)
(-0.012792 0.0582792 0)
(-0.032617 0.0843899 0)
(-0.056967 0.0994106 0)
(-0.0824437 0.10383 0)
(-0.106807 0.0988414 0)
(-0.128351 0.0859809 0)
(-0.145832 0.0668978 0)
(-0.158393 0.0432324 0)
(-0.165458 0.0165901 0)
(-0.166663 -0.0114168 0)
(-0.161824 -0.0390954 0)
(-0.150967 -0.0645984 0)
(-0.134401 -0.085887 0)
(-0.112847 -0.100768 0)
(-0.0875939 -0.107044 0)
(-0.0606011 -0.102808 0)
(-0.0345476 -0.0868519 0)
(-0.0133739 -0.0591715 0)
(-0.00230532 -0.0216488 0)
(-0.00270029 0.0290712 0)
(-0.0149573 0.0756645 0)
(-0.0376804 0.108008 0)
(-0.0650814 0.12573 0)
(-0.0931967 0.13003 0)
(-0.119603 0.122822 0)
(-0.142611 0.106263 0)
(-0.161101 0.0824785 0)
(-0.174374 0.0534458 0)
(-0.181986 0.0209969 0)
(-0.183632 -0.0130926 0)
(-0.179092 -0.0469732 0)
(-0.168254 -0.078586 0)
(-0.151209 -0.105562 0)
(-0.128429 -0.125205 0)
(-0.101009 -0.134622 0)
(-0.0708845 -0.131046 0)
(-0.0410094 -0.112367 0)
(-0.0161321 -0.0778501 0)
(-0.00284525 -0.0291517 0)
(-0.00321796 0.0374187 0)
(-0.017421 0.0956415 0)
(-0.0431617 0.134621 0)
(-0.0734284 0.154765 0)
(-0.103661 0.158335 0)
(-0.131352 0.148251 0)
(-0.154973 0.127462 0)
(-0.173676 0.0986464 0)
(-0.18705 0.0641104 0)
(-0.19488 0.0258474 0)
(-0.196976 -0.0143056 0)
(-0.193101 -0.0544623 0)
(-0.182974 -0.0924671 0)
(-0.166377 -0.125703 0)
(-0.14338 -0.150982 0)
(-0.114684 -0.164604 0)
(-0.0819846 -0.162678 0)
(-0.0483665 -0.141771 0)
(-0.0194456 -0.0999315 0)
(-0.00353832 -0.0382325 0)
(-0.003878 0.047182 0)
(-0.0203191 0.118427 0)
(-0.0491532 0.164145 0)
(-0.0818481 0.186026 0)
(-0.113257 0.187917 0)
(-0.140974 0.17411 0)
(-0.163858 0.14855 0)
(-0.18154 0.114525 0)
(-0.194061 0.0746283 0)
(-0.201547 0.0309116 0)
(-0.204007 -0.0148713 0)
(-0.201215 -0.0609648 0)
(-0.192706 -0.105291 0)
(-0.177866 -0.145136 0)
(-0.156193 -0.176903 0)
(-0.127723 -0.196023 0)
(-0.0935797 -0.197197 0)
(-0.0566816 -0.17512 0)
(-0.0234805 -0.125865 0)
(-0.00445563 -0.0492524 0)
(-0.00478171 0.0586816 0)
(-0.0238841 0.144276 0)
(-0.055775 0.196302 0)
(-0.090027 0.218605 0)
(-0.121028 0.217391 0)
(-0.146813 0.198799 0)
(-0.166961 0.167964 0)
(-0.181846 0.128794 0)
(-0.192142 0.0840775 0)
(-0.198445 0.0357692 0)
(-0.201037 -0.0146455 0)
(-0.19976 -0.0657537 0)
(-0.193972 -0.115789 0)
(-0.182616 -0.16218 0)
(-0.164451 -0.201112 0)
(-0.138536 -0.227198 0)
(-0.104949 -0.233492 0)
(-0.0659135 -0.212135 0)
(-0.0284653 -0.156095 0)
(-0.0057164 -0.0627065 0)
(-0.00612346 0.0724541 0)
(-0.0285126 0.173485 0)
(-0.0631502 0.23045 0)
(-0.0973377 0.250916 0)
(-0.125385 0.244576 0)
(-0.146347 0.219946 0)
(-0.160985 0.183482 0)
(-0.170709 0.139623 0)
(-0.176991 0.0911679 0)
(-0.180982 0.0397695 0)
(-0.183302 -0.0135708 0)
(-0.183916 -0.0680181 0)
(-0.182071 -0.122394 0)
(-0.176285 -0.174595 0)
(-0.164494 -0.220933 0)
(-0.144483 -0.255454 0)
(-0.114693 -0.269487 0)
(-0.0757974 -0.251907 0)
(-0.0347235 -0.19097 0)
(-0.00752969 -0.0793087 0)
(-0.00826421 0.0894304 0)
(-0.0348261 0.206316 0)
(-0.0712307 0.265244 0)
(-0.102418 0.2803 0)
(-0.123565 0.266177 0)
(-0.135674 0.234238 0)
(-0.141241 0.192181 0)
(-0.142954 0.14469 0)
(-0.14314 0.0942761 0)
(-0.143495 0.0420363 0)
(-0.144972 -0.0117244 0)
(-0.147715 -0.0669613 0)
(-0.150975 -0.123353 0)
(-0.153 -0.179649 0)
(-0.150991 -0.232797 0)
(-0.14132 -0.276826 0)
(-0.120197 -0.301651 0)
(-0.0855341 -0.292382 0)
(-0.0426638 -0.23052 0)
(-0.0102556 -0.100129 0)
(-0.0118105 0.111193 0)
(-0.0435923 0.242699 0)
(-0.0791877 0.297972 0)
(-0.102171 0.302426 0)
(-0.110582 0.277475 0)
(-0.108641 0.23739 0)
(-0.101058 0.19058 0)
(-0.0918088 0.141402 0)
(-0.0838973 0.0916413 0)
(-0.0793593 0.0415722 0)
(-0.0793579 -0.00934461 0)
(-0.0842296 -0.0619668 0)
(-0.093404 -0.117005 0)
(-0.105181 -0.174411 0)
(-0.116425 -0.232401 0)
(-0.122341 -0.285915 0)
(-0.116613 -0.324426 0)
(-0.0929998 -0.329521 0)
(-0.0525458 -0.273898 0)
(-0.0144384 -0.126748 0)
(-0.0175103 0.140363 0)
(-0.0549853 0.28135 0)
(-0.0836216 0.323269 0)
(-0.0895793 0.310496 0)
(-0.0773168 0.27219 0)
(-0.0555241 0.224467 0)
(-0.0310674 0.175193 0)
(-0.00869043 0.127458 0)
(0.00851354 0.0818135 0)
(0.0186383 0.0375195 0)
(0.0205926 -0.00680328 0)
(0.0139105 -0.0528298 0)
(-0.0012114 -0.10226 0)
(-0.023618 -0.156405 0)
(-0.0506184 -0.215334 0)
(-0.0771703 -0.276132 0)
(-0.0950005 -0.329712 0)
(-0.0928431 -0.355999 0)
(-0.0634287 -0.318213 0)
(-0.0205566 -0.161477 0)
(-0.0252249 0.181457 0)
(-0.0657342 0.317488 0)
(-0.073996 0.330532 0)
(-0.0493497 0.294102 0)
(-0.00750828 0.242667 0)
(0.0385829 0.190787 0)
(0.0813439 0.143586 0)
(0.116653 0.101798 0)
(0.142396 0.0643655 0)
(0.157508 0.0295858 0)
(0.161379 -0.00449504 0)
(0.153559 -0.040001 0)
(0.133734 -0.0792385 0)
(0.101982 -0.124629 0)
(0.0594602 -0.178277 0)
(0.00972011 -0.240542 0)
(-0.0392217 -0.306522 0)
(-0.072405 -0.359126 0)
(-0.0699678 -0.35607 0)
(-0.0276364 -0.207898 0)
(-0.0289787 0.238671 0)
(-0.0602836 0.336007 0)
(-0.0224203 0.30024 0)
(0.0495866 0.239434 0)
(0.126112 0.182069 0)
(0.194938 0.134469 0)
(0.251668 0.0965517 0)
(0.295065 0.0661715 0)
(0.325255 0.0409111 0)
(0.342681 0.0186062 0)
(0.34756 -0.00268856 0)
(0.339641 -0.0249039 0)
(0.318127 -0.0502153 0)
(0.281757 -0.0813254 0)
(0.22924 -0.121644 0)
(0.160443 -0.174867 0)
(0.0786922 -0.242736 0)
(-0.00384446 -0.31876 0)
(-0.0540593 -0.368647 0)
(-0.0276922 -0.266879 0)
(0.00961705 0.280891 0)
(0.0212148 0.294788 0)
(0.138666 0.210791 0)
(0.263816 0.143192 0)
(0.363477 0.0968654 0)
(0.439047 0.0654591 0)
(0.494982 0.0439514 0)
(0.53473 0.0286623 0)
(0.56102 0.0170612 0)
(0.575723 0.00744541 0)
(0.579779 -0.00143545 0)
(0.573209 -0.0106991 0)
(0.555055 -0.0216329 0)
(0.523204 -0.0360758 0)
(0.474229 -0.0569759 0)
(0.403374 -0.0890881 0)
(0.304245 -0.139443 0)
(0.172754 -0.216106 0)
(0.0426256 -0.311258 0)
(0.020108 -0.298842 0)
(0.300988 0.145486 0)
(0.397799 0.127067 0)
(0.557516 0.0759034 0)
(0.674381 0.0436417 0)
(0.743655 0.0255335 0)
(0.786705 0.0152228 0)
(0.814829 0.00920177 0)
(0.833131 0.00550568 0)
(0.844445 0.00303162 0)
(0.850374 0.00116284 0)
(0.851671 -0.000478138 0)
(0.848446 -0.00218803 0)
(0.840168 -0.00430952 0)
(0.825451 -0.00739553 0)
(0.801559 -0.0125012 0)
(0.763279 -0.0217259 0)
(0.698864 -0.039189 0)
(0.583871 -0.0724337 0)
(0.417306 -0.127331 0)
(0.310271 -0.148805 0)
)
;

boundaryField
{
    movingWall
    {
        type            fixedValue;
        value           uniform (1 0 0);
    }
    fixedWalls
    {
        type            noSlip;
    }
    frontAndBack
    {
        type            empty;
    }
}


// ************************************************************************* //
