/*--------------------------------*- C++ -*----------------------------------*\
  =========                 |
  \\      /  F ield         | OpenFOAM: The Open Source CFD Toolbox
   \\    /   O peration     | Website:  https://openfoam.org
    \\  /    A nd           | Version:  6
     \\/     M anipulation  |
\*---------------------------------------------------------------------------*/
FoamFile
{
    version     2.0;
    format      ascii;
    class       surfaceScalarField;
    location    "0.02";
    object      phi;
}
// * * * * * * * * * * * * * * * * * * * * * * * * * * * * * * * * * * * * * //

dimensions      [0 3 -1 0 0 0 0];

internalField   nonuniform List<scalar> 
760
(
1.46796e-08
-1.47161e-08
-2.07155e-08
3.53938e-08
-1.12147e-07
9.1432e-08
-2.43488e-07
1.31341e-07
-3.94739e-07
1.5125e-07
-5.46638e-07
1.519e-07
-6.82529e-07
1.35892e-07
-7.8921e-07
1.06682e-07
-8.572e-07
6.79893e-08
-8.80762e-07
2.35617e-08
-8.57894e-07
-2.28678e-08
-7.90349e-07
-6.75452e-08
-6.83702e-07
-1.06646e-07
-5.47435e-07
-1.36267e-07
-3.94909e-07
-1.52526e-07
-2.43056e-07
-1.51854e-07
-1.11406e-07
-1.3165e-07
-2.00827e-08
-9.13231e-08
1.49341e-08
-3.50167e-08
1.49344e-08
-3.27448e-08
1.80298e-08
-1.76628e-07
1.79278e-07
-4.28683e-07
3.43488e-07
-7.58917e-07
4.61575e-07
-1.1274e-06
5.19729e-07
-1.49306e-06
5.17566e-07
-1.81877e-06
4.61604e-07
-2.0741e-06
3.62013e-07
-2.23671e-06
2.30598e-07
-2.29293e-06
7.97807e-08
-2.23801e-06
-7.77872e-08
-2.07624e-06
-2.29314e-07
-1.821e-06
-3.61889e-07
-1.49461e-06
-4.62656e-07
-1.12779e-06
-5.19346e-07
-7.5817e-07
-5.21474e-07
-4.27301e-07
-4.62519e-07
-1.7537e-07
-3.43253e-07
-3.21759e-08
-1.78211e-07
-1.72411e-08
-8.99241e-08
1.07954e-07
-3.51404e-07
4.40756e-07
-7.5695e-07
7.49035e-07
-1.26066e-06
9.6529e-07
-1.80771e-06
1.06677e-06
-2.3426e-06
1.05246e-06
-2.81504e-06
9.34051e-07
-3.1836e-06
7.30574e-07
-3.41768e-06
4.64678e-07
-3.49851e-06
1.60606e-07
-3.41956e-06
-1.56739e-07
-3.18674e-06
-4.62127e-07
-2.81844e-06
-7.30192e-07
-2.34519e-06
-9.35905e-07
-1.80878e-06
-1.05576e-06
-1.26011e-06
-1.07014e-06
-7.55361e-07
-9.67272e-07
-3.49777e-07
-7.48837e-07
-8.91215e-08
-4.38867e-07
-1.06362e-07
-1.42213e-07
2.50167e-07
-5.18924e-07
8.17467e-07
-1.07368e-06
1.30379e-06
-1.74046e-06
1.63207e-06
-2.44913e-06
1.77544e-06
-3.13207e-06
1.7354e-06
-3.72943e-06
1.53141e-06
-4.19249e-06
1.19363e-06
-4.48553e-06
7.57725e-07
-4.58674e-06
2.61808e-07
-4.48849e-06
-2.54988e-07
-4.19758e-06
-7.53037e-07
-3.73527e-06
-1.1925e-06
-3.13713e-06
-1.53405e-06
-2.45223e-06
-1.74066e-06
-1.74121e-06
-1.78116e-06
-1.07261e-06
-1.63587e-06
-5.17271e-07
-1.30418e-06
-1.41253e-07
-8.14884e-07
-2.47615e-07
-1.90436e-07
4.40604e-07
-6.79415e-07
1.30645e-06
-1.38108e-06
2.00546e-06
-2.20655e-06
2.45753e-06
-3.06899e-06
2.63788e-06
-3.88915e-06
2.55556e-06
-4.59941e-06
2.24167e-06
-5.14618e-06
1.7404e-06
-5.49089e-06
1.10243e-06
-5.61017e-06
3.81089e-07
-5.49585e-06
-3.69311e-07
-5.15495e-06
-1.09393e-06
-4.60999e-06
-1.73746e-06
-3.89922e-06
-2.24482e-06
-3.07657e-06
-2.56331e-06
-2.21061e-06
-2.64712e-06
-1.38189e-06
-2.46459e-06
-6.78416e-07
-2.00766e-06
-1.89492e-07
-1.30381e-06
-4.37107e-07
-2.37523e-07
6.78127e-07
-8.38843e-07
1.90777e-06
-1.68799e-06
2.85461e-06
-2.67101e-06
3.44055e-06
-3.68303e-06
3.6499e-06
-4.63329e-06
3.50582e-06
-5.44783e-06
3.05622e-06
-6.07025e-06
2.36281e-06
-6.46108e-06
1.49326e-06
-6.59687e-06
5.16879e-07
-6.46932e-06
-4.96865e-07
-6.08509e-06
-1.47815e-06
-5.46639e-06
-2.35616e-06
-4.65203e-06
-3.05918e-06
-3.69868e-06
-3.51665e-06
-2.68144e-06
-3.66436e-06
-1.69285e-06
-3.45318e-06
-8.39653e-07
-2.86085e-06
-2.3693e-07
-1.90653e-06
-6.74036e-07
-2.86492e-07
9.64618e-07
-1.00413e-06
2.62541e-06
-2.00401e-06
3.85448e-06
-3.14447e-06
4.58101e-06
-4.30148e-06
4.80691e-06
-5.37341e-06
4.57776e-06
-6.28197e-06
3.96477e-06
-6.97043e-06
3.05127e-06
-7.40085e-06
1.92369e-06
-7.5513e-06
6.67322e-07
-7.41387e-06
-6.34292e-07
-6.99421e-06
-1.89781e-06
-6.31243e-06
-3.03794e-06
-5.4054e-06
-3.96621e-06
-4.32985e-06
-4.5922e-06
-3.16537e-06
-4.82883e-06
-2.01595e-06
-4.6026e-06
-1.00846e-06
-3.86834e-06
-2.8678e-07
-2.62821e-06
-9.60817e-07
-3.40169e-07
1.30479e-06
-1.1818e-06
3.46704e-06
-2.33714e-06
5.00982e-06
-3.63317e-06
5.87704e-06
-4.92601e-06
6.09974e-06
-6.10505e-06
5.7568e-06
-7.09094e-06
4.95066e-06
-7.83041e-06
3.79075e-06
-8.29027e-06
2.38355e-06
-8.45224e-06
8.29289e-07
-8.30958e-06
-7.76953e-07
-7.86608e-06
-2.34131e-06
-7.1375e-06
-3.76653e-06
-6.15534e-06
-4.94837e-06
-4.97248e-06
-5.77506e-06
-3.66954e-06
-6.13178e-06
-2.36004e-06
-5.9121e-06
-1.19193e-06
-5.03646e-06
-3.42091e-07
-3.47805e-06
-1.30291e-06
-4.01343e-07
1.70613e-06
-1.37774e-06
4.44343e-06
-2.69267e-06
6.32476e-06
-4.13685e-06
7.32122e-06
-5.54681e-06
7.5097e-06
-6.80682e-06
7.01681e-06
-7.84201e-06
5.98585e-06
-8.60805e-06
4.55679e-06
-9.08098e-06
2.85649e-06
-9.24907e-06
9.97377e-07
-9.10774e-06
-9.18284e-07
-8.65797e-06
-2.79108e-06
-7.90827e-06
-4.51623e-06
-6.88013e-06
-5.9765e-06
-5.6168e-06
-7.03838e-06
-4.19409e-06
-7.55449e-06
-2.73102e-06
-7.37517e-06
-1.39647e-06
-6.37101e-06
-4.05883e-07
-4.46863e-06
-1.70879e-06
-4.7333e-07
2.17946e-06
-1.59775e-06
5.56785e-06
-3.07274e-06
7.79974e-06
-4.64668e-06
8.89517e-06
-6.13892e-06
9.00194e-06
-7.43574e-06
8.31362e-06
-8.47525e-06
7.02536e-06
-9.22986e-06
5.31139e-06
-9.69069e-06
3.31732e-06
-9.85616e-06
1.16285e-06
-9.72517e-06
-1.04928e-06
-9.29484e-06
-3.22141e-06
-8.56293e-06
-5.24814e-06
-7.53502e-06
-7.00441e-06
-6.23661e-06
-8.33679e-06
-4.72966e-06
-9.06144e-06
-3.1311e-06
-8.97373e-06
-1.62825e-06
-7.87386e-06
-4.81689e-07
-5.61519e-06
-2.19048e-06
-5.60991e-07
2.74045e-06
-1.84861e-06
6.85547e-06
-3.47553e-06
9.42666e-06
-5.14193e-06
1.05616e-05
-6.65668e-06
1.05167e-05
-7.92027e-06
9.57721e-06
-8.89627e-06
8.00136e-06
-9.58387e-06
5.999e-06
-9.99627e-06
3.72972e-06
-1.01461e-05
1.31266e-06
-1.00371e-05
-1.15822e-06
-9.66177e-06
-3.59678e-06
-9.00335e-06
-5.90656e-06
-8.04464e-06
-7.96312e-06
-6.78303e-06
-9.5984e-06
-5.25344e-06
-1.0591e-05
-3.55761e-06
-1.06696e-05
-1.89399e-06
-9.53748e-06
-5.74542e-07
-6.93464e-06
-2.76502e-06
-6.72443e-07
3.41289e-06
-2.13909e-06
8.32212e-06
-3.89292e-06
1.11805e-05
-5.58353e-06
1.22522e-05
-7.02451e-06
1.19577e-05
-8.15019e-06
1.07029e-05
-8.96649e-06
8.81767e-06
-9.51112e-06
6.54362e-06
-9.82632e-06
4.04492e-06
-9.94253e-06
1.42887e-06
-9.86986e-06
-1.23089e-06
-9.59534e-06
-3.8713e-06
-9.08503e-06
-6.41687e-06
-8.29227e-06
-8.75588e-06
-7.17448e-06
-1.07162e-05
-5.72188e-06
-1.20436e-05
-3.99997e-06
-1.23915e-05
-2.20176e-06
-1.13357e-05
-6.9261e-07
-8.44379e-06
-3.45763e-06
-8.21803e-07
4.2347e-06
-2.48004e-06
9.98036e-06
-4.30359e-06
1.3004e-05
-5.901e-06
1.38496e-05
-7.12106e-06
1.31777e-05
-7.96148e-06
1.15433e-05
-8.49089e-06
9.34707e-06
-8.79657e-06
6.8493e-06
-8.95458e-06
4.20293e-06
-9.01474e-06
1.48903e-06
-8.99411e-06
-1.25152e-06
-8.87478e-06
-3.99063e-06
-8.60494e-06
-6.68671e-06
-8.10455e-06
-9.25627e-06
-7.28028e-06
-1.15405e-05
-6.05671e-06
-1.32672e-05
-4.43189e-06
-1.40163e-05
-2.56043e-06
-1.32071e-05
-8.49838e-07
-1.01544e-05
-4.30747e-06
-1.03302e-06
5.26772e-06
-2.87984e-06
1.18272e-05
-4.65507e-06
1.47793e-05
-5.96609e-06
1.51606e-05
-6.7523e-06
1.39639e-05
-7.11434e-06
1.19054e-05
-7.20322e-06
9.43594e-06
-7.16129e-06
6.80738e-06
-7.09693e-06
4.13856e-06
-7.07649e-06
1.46859e-06
-7.12294e-06
-1.20507e-06
-7.21542e-06
-3.89815e-06
-7.28817e-06
-6.61396e-06
-7.23052e-06
-9.31392e-06
-6.894e-06
-1.1877e-05
-6.1181e-06
-1.40431e-05
-4.7924e-06
-1.5342e-05
-2.97431e-06
-1.50252e-05
-1.06952e-06
-1.20592e-05
-5.37699e-06
-1.34192e-06
6.60964e-06
-3.32399e-06
1.38092e-05
-4.81992e-06
1.62752e-05
-5.54147e-06
1.58822e-05
-5.60725e-06
1.40297e-05
-5.26329e-06
1.15614e-05
-4.75128e-06
8.92393e-06
-4.25984e-06
6.31595e-06
-3.91656e-06
3.79528e-06
-3.79428e-06
1.34631e-06
-3.91827e-06
-1.08108e-06
-4.26864e-06
-3.54777e-06
-4.7765e-06
-6.10611e-06
-5.31509e-06
-8.77533e-06
-5.69161e-06
-1.15005e-05
-5.65404e-06
-1.40807e-05
-4.94119e-06
-1.60549e-05
-3.42131e-06
-1.65451e-05
-1.38568e-06
-1.40948e-05
-6.76267e-06
-1.78058e-06
8.39021e-06
-3.70536e-06
1.5734e-05
-4.49479e-06
1.70646e-05
-4.18631e-06
1.55737e-05
-3.19174e-06
1.30351e-05
-1.92291e-06
1.02926e-05
-6.88878e-07
7.6899e-06
3.09768e-07
5.3173e-06
9.55679e-07
3.14937e-06
1.18827e-06
1.11372e-06
9.86596e-07
-8.79414e-07
3.63833e-07
-2.92501e-06
-6.26422e-07
-5.11585e-06
-1.87169e-06
-7.53007e-06
-3.17178e-06
-1.02004e-05
-4.21038e-06
-1.30421e-05
-4.55862e-06
-1.57066e-05
-3.78121e-06
-1.73225e-05
-1.82572e-06
-1.60503e-05
-8.58839e-06
-2.2975e-06
1.06877e-05
-3.62947e-06
1.7066e-05
-2.98794e-06
1.64231e-05
-1.09936e-06
1.36851e-05
1.25593e-06
1.06799e-05
3.55747e-06
7.99102e-06
5.51116e-06
5.73621e-06
6.97196e-06
3.85651e-06
7.87715e-06
2.24417e-06
8.20276e-06
7.88121e-07
7.94057e-06
-6.17232e-07
7.09109e-06
-2.07552e-06
5.67018e-06
-3.69494e-06
3.73232e-06
-5.59221e-06
1.41596e-06
-7.88401e-06
-9.85551e-07
-1.06405e-05
-2.94046e-06
-1.37517e-05
-3.6415e-06
-1.66215e-05
-2.3275e-06
-1.73643e-05
-1.09159e-05
-2.50299e-06
1.31907e-05
-1.93797e-06
1.6501e-05
1.18917e-06
1.3296e-05
5.11036e-06
9.76392e-06
8.84269e-06
6.94753e-06
1.19804e-05
4.85327e-06
1.44012e-05
3.31542e-06
1.61031e-05
2.15467e-06
1.71201e-05
1.22716e-06
1.74827e-05
4.25498e-07
1.72012e-05
-3.35709e-07
1.62608e-05
-1.13512e-06
1.46252e-05
-2.05937e-06
1.22519e-05
-3.21894e-06
9.1319e-06
-4.76398e-06
5.37662e-06
-6.88526e-06
1.38873e-06
-9.76382e-06
-1.8337e-06
-1.3399e-05
-2.48336e-06
-1.67146e-05
-1.33992e-05
-5.77876e-07
1.37686e-05
4.63696e-06
1.12862e-05
1.10719e-05
6.86097e-06
1.6647e-05
4.18884e-06
2.09738e-05
2.62076e-06
2.41595e-05
1.66756e-06
2.64083e-05
1.06661e-06
2.78996e-05
6.63396e-07
2.87595e-05
3.67264e-07
2.90608e-05
1.24149e-07
2.88275e-05
-1.0235e-07
2.80358e-05
-3.4349e-07
2.66121e-05
-6.35671e-07
2.44264e-05
-1.0332e-06
2.12905e-05
-1.6281e-06
1.69852e-05
-2.57997e-06
1.13854e-05
-4.16396e-06
4.87009e-06
-6.88375e-06
-4.69347e-07
-1.13752e-05
-1.38686e-05
1.37686e-05
2.50547e-05
3.19157e-05
3.61046e-05
3.87253e-05
4.03929e-05
4.14595e-05
4.21229e-05
4.24901e-05
4.26143e-05
4.25119e-05
4.21685e-05
4.15328e-05
4.04996e-05
3.88715e-05
3.62915e-05
3.21276e-05
2.52438e-05
1.38686e-05
)
;

boundaryField
{
    movingWall
    {
        type            calculated;
        value           uniform 0;
    }
    fixedWalls
    {
        type            calculated;
        value           uniform 0;
    }
    frontAndBack
    {
        type            empty;
        value           nonuniform 0();
    }
}


// ************************************************************************* //
