/*--------------------------------*- C++ -*----------------------------------*\
  =========                 |
  \\      /  F ield         | OpenFOAM: The Open Source CFD Toolbox
   \\    /   O peration     | Website:  https://openfoam.org
    \\  /    A nd           | Version:  6
     \\/     M anipulation  |
\*---------------------------------------------------------------------------*/
FoamFile
{
    version     2.0;
    format      ascii;
    class       volVectorField;
    location    "0.02";
    object      U;
}
// * * * * * * * * * * * * * * * * * * * * * * * * * * * * * * * * * * * * * //

dimensions      [0 1 -1 0 0 0 0];

internalField   nonuniform List<vector> 
400
(
(0.000255574 -0.000252038 0)
(0.000158137 0.000105827 0)
(-0.00113965 0.000562868 0)
(-0.00343758 0.000890197 0)
(-0.00634292 0.00105576 0)
(-0.00944965 0.0010715 0)
(-0.0123916 0.000962048 0)
(-0.0148666 0.000756107 0)
(-0.0166467 0.000482223 0)
(-0.0175792 0.000167692 0)
(-0.0175867 -0.000161092 0)
(-0.0166663 -0.000477787 0)
(-0.0148913 -0.000755213 0)
(-0.0124125 -0.000964744 0)
(-0.00945975 -0.0010764 0)
(-0.00633974 -0.00106052 0)
(-0.00342459 -0.000892473 0)
(-0.00112474 -0.000561612 0)
(0.000167505 -0.000102399 0)
(0.000258132 0.000253912 0)
(-6.69323e-05 -0.000188148 0)
(-0.00156241 0.00160812 0)
(-0.00559819 0.00359461 0)
(-0.0116055 0.00503852 0)
(-0.0187871 0.00576535 0)
(-0.0263133 0.00578135 0)
(-0.0333873 0.00517233 0)
(-0.0393229 0.00406235 0)
(-0.0435877 0.00258993 0)
(-0.0458196 0.00089753 0)
(-0.0458336 -0.000871547 0)
(-0.0436248 -0.00257282 0)
(-0.03937 -0.00405974 0)
(-0.0334278 -0.00518438 0)
(-0.0263338 -0.0058024 0)
(-0.0187825 -0.00578582 0)
(-0.0115814 -0.0050489 0)
(-0.00556898 -0.00359046 0)
(-0.00154285 -0.00159424 0)
(-6.10941e-05 0.000197509 0)
(-0.000510038 0.00103302 0)
(-0.0036347 0.00563895 0)
(-0.0104506 0.0101593 0)
(-0.0198309 0.0133994 0)
(-0.0306154 0.0149763 0)
(-0.0416925 0.0148656 0)
(-0.05199 0.013239 0)
(-0.0605759 0.0103758 0)
(-0.0667223 0.0066072 0)
(-0.0699327 0.00228536 0)
(-0.0699528 -0.00222886 0)
(-0.0667762 -0.00657011 0)
(-0.0606461 -0.0103705 0)
(-0.0520541 -0.0132661 0)
(-0.0417311 -0.0149131 0)
(-0.0306195 -0.0150234 0)
(-0.0198059 -0.013425 0)
(-0.0104143 -0.0101529 0)
(-0.00360807 -0.00560903 0)
(-0.000501491 -0.00100966 0)
(-0.000902587 0.00336573 0)
(-0.00559648 0.0120495 0)
(-0.0151477 0.0198148 0)
(-0.0277598 0.0251888 0)
(-0.041864 0.0276479 0)
(-0.0560932 0.0271757 0)
(-0.0691644 0.0240674 0)
(-0.0799767 0.0188016 0)
(-0.087679 0.0119508 0)
(-0.0916935 0.00412996 0)
(-0.091725 -0.00402821 0)
(-0.0877646 -0.0118823 0)
(-0.0800928 -0.0187881 0)
(-0.0692797 -0.0241111 0)
(-0.0561786 -0.0272574 0)
(-0.0419024 -0.027733 0)
(-0.0277526 -0.0252405 0)
(-0.0151149 -0.0198118 0)
(-0.00556626 -0.0120024 0)
(-0.000891665 -0.00332402 0)
(-0.00124969 0.00669875 0)
(-0.00744387 0.0207147 0)
(-0.0196902 0.0323889 0)
(-0.0354762 0.0401312 0)
(-0.0527783 0.0433943 0)
(-0.0699652 0.0422554 0)
(-0.0855696 0.0371977 0)
(-0.0983679 0.0289486 0)
(-0.107435 0.0183613 0)
(-0.112152 0.0063449 0)
(-0.112204 -0.00616904 0)
(-0.10758 -0.0182376 0)
(-0.0985716 -0.0289125 0)
(-0.0857863 -0.0372556 0)
(-0.070149 -0.0423808 0)
(-0.0528968 -0.0435354 0)
(-0.0355212 -0.0402297 0)
(-0.0196809 -0.0324057 0)
(-0.0074174 -0.0206569 0)
(-0.00123742 -0.00663677 0)
(-0.00158145 0.0109757 0)
(-0.00926518 0.0316083 0)
(-0.0242228 0.0478879 0)
(-0.0431858 0.0582174 0)
(-0.0636348 0.0621569 0)
(-0.0836611 0.0599929 0)
(-0.101632 0.0524871 0)
(-0.116238 0.0406794 0)
(-0.126525 0.0257434 0)
(-0.131869 0.0089031 0)
(-0.131955 -0.00860183 0)
(-0.126766 -0.0255213 0)
(-0.116587 -0.0405924 0)
(-0.102021 -0.0525504 0)
(-0.0840182 -0.0601737 0)
(-0.063902 -0.0623825 0)
(-0.0433364 -0.0583992 0)
(-0.0242699 -0.0479577 0)
(-0.00925581 -0.0315594 0)
(-0.00157017 -0.0108964 0)
(-0.00192797 0.0162034 0)
(-0.0111617 0.0447739 0)
(-0.0289163 0.0663618 0)
(-0.0510982 0.0794581 0)
(-0.0746475 0.0838798 0)
(-0.0973756 0.0802689 0)
(-0.117513 0.0697814 0)
(-0.133716 0.053846 0)
(-0.14505 0.0339953 0)
(-0.150931 0.011777 0)
(-0.151067 -0.0112707 0)
(-0.145433 -0.0336063 0)
(-0.13428 -0.0536608 0)
(-0.118162 -0.0698311 0)
(-0.0980009 -0.0805174 0)
(-0.0751538 -0.0842298 0)
(-0.0514279 -0.0797798 0)
(-0.0290675 -0.0665411 0)
(-0.01119 -0.0447732 0)
(-0.0019217 -0.0161185 0)
(-0.00231755 0.0224483 0)
(-0.0132317 0.0603301 0)
(-0.0339287 0.0878972 0)
(-0.0593705 0.103847 0)
(-0.0859064 0.108445 0)
(-0.111085 0.102875 0)
(-0.133058 0.0888322 0)
(-0.150522 0.0682193 0)
(-0.162639 0.0429613 0)
(-0.168917 0.0149212 0)
(-0.169117 -0.0140988 0)
(-0.163208 -0.042308 0)
(-0.151373 -0.0678648 0)
(-0.134061 -0.0888344 0)
(-0.112086 -0.103201 0)
(-0.0867591 -0.108969 0)
(-0.059971 -0.104388 0)
(-0.0342465 -0.0882728 0)
(-0.0133263 -0.0604442 0)
(-0.00232237 -0.0223819 0)
(-0.00277977 0.029832 0)
(-0.0155723 0.0784651 0)
(-0.0393932 0.112595 0)
(-0.0680758 0.131313 0)
(-0.0973254 0.1356 0)
(-0.124481 0.127433 0)
(-0.147719 0.109217 0)
(-0.165895 0.0834237 0)
(-0.178367 0.0523885 0)
(-0.184815 0.0182549 0)
(-0.18509 -0.0169771 0)
(-0.179158 -0.0513456 0)
(-0.167094 -0.0828034 0)
(-0.149161 -0.109118 0)
(-0.125961 -0.127835 0)
(-0.0986365 -0.136355 0)
(-0.0690501 -0.132174 0)
(-0.0399525 -0.113288 0)
(-0.0157698 -0.0787947 0)
(-0.00280408 -0.0298262 0)
(-0.00335328 0.0385358 0)
(-0.0182955 0.0994243 0)
(-0.0454224 0.140522 0)
(-0.077178 0.161628 0)
(-0.108583 0.164847 0)
(-0.136884 0.153274 0)
(-0.160456 0.130234 0)
(-0.178479 0.0988548 0)
(-0.190653 0.0618737 0)
(-0.196918 0.0216419 0)
(-0.197272 -0.0197523 0)
(-0.191673 -0.0602965 0)
(-0.180048 -0.0978494 0)
(-0.162382 -0.129956 0)
(-0.138916 -0.153733 0)
(-0.110447 -0.165884 0)
(-0.0786259 -0.162927 0)
(-0.0463046 -0.141684 0)
(-0.0186396 -0.100109 0)
(-0.00340809 -0.0386544 0)
(-0.00409988 0.0488195 0)
(-0.0215562 0.1235 0)
(-0.0521176 0.17163 0)
(-0.0864918 0.194284 0)
(-0.119032 0.195288 0)
(-0.147117 0.179295 0)
(-0.169587 0.150784 0)
(-0.186183 0.113595 0)
(-0.197111 0.0708117 0)
(-0.202689 0.0248682 0)
(-0.203105 -0.0222177 0)
(-0.198324 -0.0685548 0)
(-0.188075 -0.112072 0)
(-0.171963 -0.150225 0)
(-0.149699 -0.179764 0)
(-0.121487 -0.196634 0)
(-0.0884842 -0.196133 0)
(-0.0533977 -0.17344 0)
(-0.0220952 -0.124719 0)
(-0.004199 -0.0491526 0)
(-0.00512972 0.0610687 0)
(-0.0255952 0.151017 0)
(-0.0595621 0.205643 0)
(-0.0955912 0.228293 0)
(-0.12753 0.225423 0)
(-0.153297 0.203793 0)
(-0.172588 0.169248 0)
(-0.18599 0.126336 0)
(-0.194403 0.0783531 0)
(-0.198613 0.0276252 0)
(-0.199054 -0.0241113 0)
(-0.195698 -0.0753046 0)
(-0.188052 -0.124172 0)
(-0.17525 -0.168286 0)
(-0.156296 -0.204179 0)
(-0.130507 -0.227058 0)
(-0.0981282 -0.230772 0)
(-0.0612863 -0.208277 0)
(-0.0263756 -0.152981 0)
(-0.0052897 -0.0617357 0)
(-0.00664556 0.0758912 0)
(-0.0307929 0.182303 0)
(-0.0677587 0.241832 0)
(-0.103596 0.261899 0)
(-0.132135 0.252889 0)
(-0.152517 0.224276 0)
(-0.16581 0.183392 0)
(-0.173753 0.135345 0)
(-0.178078 0.0833952 0)
(-0.180093 0.0295035 0)
(-0.180489 -0.0251254 0)
(-0.179258 -0.0795248 0)
(-0.175689 -0.132461 0)
(-0.168417 -0.181902 0)
(-0.155607 -0.224438 0)
(-0.135384 -0.254707 0)
(-0.106546 -0.265005 0)
(-0.0699064 -0.245422 0)
(-0.0318479 -0.185229 0)
(-0.00688514 -0.0770403 0)
(-0.00901242 0.0942809 0)
(-0.0377043 0.217556 0)
(-0.0763982 0.278616 0)
(-0.108693 0.292132 0)
(-0.129538 0.27414 0)
(-0.140336 0.237325 0)
(-0.144113 0.190354 0)
(-0.143972 0.138512 0)
(-0.142486 0.0846406 0)
(-0.141421 0.0300162 0)
(-0.141674 -0.0249355 0)
(-0.143268 -0.0800591 0)
(-0.145343 -0.134929 0)
(-0.146121 -0.188244 0)
(-0.142948 -0.237076 0)
(-0.132559 -0.275923 0)
(-0.111713 -0.295715 0)
(-0.0788217 -0.283172 0)
(-0.0390308 -0.221621 0)
(-0.00934992 -0.0960819 0)
(-0.0128204 0.117837 0)
(-0.0469204 0.256448 0)
(-0.0841684 0.31281 0)
(-0.107106 0.314203 0)
(-0.114056 0.284185 0)
(-0.110028 0.238628 0)
(-0.100427 0.186853 0)
(-0.0896424 0.133606 0)
(-0.080821 0.0807852 0)
(-0.0759325 0.0286721 0)
(-0.0759343 -0.0232617 0)
(-0.0808834 -0.075799 0)
(-0.0899229 -0.129499 0)
(-0.101139 -0.184124 0)
(-0.111362 -0.23778 0)
(-0.116059 -0.285599 0)
(-0.109556 -0.317904 0)
(-0.0865029 -0.318118 0)
(-0.0484302 -0.261697 0)
(-0.0132637 -0.120458 0)
(-0.0187252 0.149083 0)
(-0.0582011 0.297111 0)
(-0.0868903 0.338302 0)
(-0.090996 0.32079 0)
(-0.0759793 0.27659 0)
(-0.0515909 0.223434 0)
(-0.0253716 0.169791 0)
(-0.0023138 0.118812 0)
(0.0145407 0.0708914 0)
(0.0235139 0.0251231 0)
(0.0238434 -0.0199651 0)
(0.0154502 -0.0660183 0)
(-0.00105491 -0.114566 0)
(-0.0241208 -0.166617 0)
(-0.0507724 -0.221884 0)
(-0.0759647 -0.277248 0)
(-0.0919171 -0.324027 0)
(-0.0884447 -0.343817 0)
(-0.0596206 -0.303316 0)
(-0.0192375 -0.152636 0)
(-0.0262735 0.192189 0)
(-0.0674499 0.333754 0)
(-0.0730889 0.343627 0)
(-0.0445778 0.301188 0)
(0.000817722 0.243944 0)
(0.0492392 0.187598 0)
(0.092767 0.137344 0)
(0.127369 0.0935944 0)
(0.151219 0.0549298 0)
(0.163598 0.0193761 0)
(0.164251 -0.0151676 0)
(0.153103 -0.0508359 0)
(0.130252 -0.0897928 0)
(0.0962499 -0.13414 0)
(0.0527609 -0.185477 0)
(0.00372193 -0.24358 0)
(-0.0428712 -0.303284 0)
(-0.0728183 -0.348449 0)
(-0.0681603 -0.340248 0)
(-0.0266795 -0.196632 0)
(-0.0286708 0.250102 0)
(-0.0579805 0.349828 0)
(-0.014685 0.308958 0)
(0.0621756 0.242216 0)
(0.141638 0.180452 0)
(0.211344 0.130253 0)
(0.267164 0.0910184 0)
(0.308319 0.0600462 0)
(0.335366 0.0345281 0)
(0.349073 0.0120661 0)
(0.349894 -0.00940522 0)
(0.337789 -0.0318449 0)
(0.312205 -0.0573597 0)
(0.272237 -0.0884441 0)
(0.217129 -0.128079 0)
(0.147428 -0.179231 0)
(0.0670823 -0.242776 0)
(-0.0115554 -0.312088 0)
(-0.0569368 -0.355325 0)
(-0.0284598 -0.254835 0)
(0.0136402 0.288404 0)
(0.0296974 0.302266 0)
(0.152909 0.21389 0)
(0.281337 0.142448 0)
(0.381515 0.0941908 0)
(0.455794 0.0622345 0)
(0.509353 0.0408046 0)
(0.546168 0.0257734 0)
(0.569283 0.0144114 0)
(0.580697 0.004935 0)
(0.581376 -0.0039415 0)
(0.571324 -0.013354 0)
(0.549577 -0.0245957 0)
(0.514095 -0.0394759 0)
(0.461716 -0.0607986 0)
(0.388237 -0.0928765 0)
(0.288148 -0.141822 0)
(0.158645 -0.2148 0)
(0.0332848 -0.305053 0)
(0.0153871 -0.291424 0)
(0.304634 0.147056 0)
(0.405639 0.127652 0)
(0.568642 0.0748518 0)
(0.685253 0.0419842 0)
(0.75283 0.0239835 0)
(0.794043 0.0140387 0)
(0.820454 0.00837348 0)
(0.837259 0.00493923 0)
(0.847287 0.00263414 0)
(0.852072 0.000859157 0)
(0.852285 -0.000752377 0)
(0.847946 -0.00249938 0)
(0.838425 -0.00474285 0)
(0.822223 -0.00807155 0)
(0.79653 -0.0135802 0)
(0.756127 -0.023342 0)
(0.689373 -0.0412379 0)
(0.573072 -0.0742788 0)
(0.408905 -0.127713 0)
(0.30618 -0.147623 0)
)
;

boundaryField
{
    movingWall
    {
        type            fixedValue;
        value           uniform (1 0 0);
    }
    fixedWalls
    {
        type            noSlip;
    }
    frontAndBack
    {
        type            empty;
    }
}


// ************************************************************************* //
