/*--------------------------------*- C++ -*----------------------------------*\
  =========                 |
  \\      /  F ield         | OpenFOAM: The Open Source CFD Toolbox
   \\    /   O peration     | Website:  https://openfoam.org
    \\  /    A nd           | Version:  6
     \\/     M anipulation  |
\*---------------------------------------------------------------------------*/
FoamFile
{
    version     2.0;
    format      ascii;
    class       volScalarField;
    location    "0.06";
    object      p;
}
// * * * * * * * * * * * * * * * * * * * * * * * * * * * * * * * * * * * * * //

dimensions      [0 2 -2 0 0 0 0];

internalField   nonuniform List<scalar> 
400
(
2.54205e-05
-0.0580351
-0.130342
-0.186202
-0.207159
-0.184913
-0.118842
-0.0138536
0.121369
0.275711
0.436677
0.591287
0.726945
0.832374
0.898727
0.920995
0.899814
0.843624
0.771092
0.713027
0.0575809
-0.00207063
-0.0588325
-0.0973876
-0.10859
-0.0866017
-0.0306781
0.055631
0.165733
0.290974
0.421482
0.546951
0.657425
0.744115
0.800288
0.822307
0.810923
0.772084
0.715127
0.655513
0.134073
0.0514409
-0.0100031
-0.0456103
-0.0547419
-0.034177
0.0160236
0.0924078
0.189182
0.298921
0.41319
0.523185
0.620384
0.697212
0.747718
0.768347
0.75903
0.723096
0.6614
0.578798
0.204745
0.090388
0.0139345
-0.026699
-0.0378195
-0.0185194
0.0299323
0.10344
0.196152
0.300992
0.410092
0.515279
0.608574
0.682712
0.731636
0.751099
0.739798
0.69875
0.621913
0.507497
0.253414
0.105446
0.0109834
-0.0368228
-0.0502227
-0.0303703
0.0201216
0.0961738
0.191443
0.298739
0.410294
0.518088
0.614208
0.691217
0.742489
0.762719
0.749207
0.700899
0.605856
0.457627
0.268516
0.0861403
-0.0271435
-0.0819015
-0.0958262
-0.0720491
-0.014674
0.0699637
0.174705
0.291913
0.413582
0.531514
0.637517
0.723624
0.782287
0.806834
0.792987
0.73768
0.623552
0.440556
0.240026
0.0220699
-0.109761
-0.169457
-0.180294
-0.147574
-0.0771535
0.0230881
0.144911
0.279997
0.419898
0.556033
0.679715
0.782192
0.854692
0.888842
0.878476
0.818281
0.685293
0.466147
0.15717
-0.0982142
-0.247316
-0.308
-0.310033
-0.261445
-0.170286
-0.0463073
0.100965
0.262424
0.429132
0.592095
0.742069
0.869387
0.96381
1.01488
1.01403
0.95309
0.802501
0.545104
0.00655617
-0.288768
-0.452558
-0.50784
-0.492717
-0.418975
-0.29751
-0.140321
0.0416559
0.238581
0.441177
0.640218
0.826047
0.988115
1.11455
1.19236
1.20987
1.1549
0.98935
0.690912
-0.229645
-0.567833
-0.741513
-0.781435
-0.737179
-0.625916
-0.462269
-0.260866
-0.0340273
0.207959
0.455895
0.70079
0.932989
1.14133
1.31231
1.42995
1.47847
1.43996
1.26442
0.921762
-0.576156
-0.959905
-1.13459
-1.14355
-1.05294
-0.887682
-0.667179
-0.408947
-0.126386
0.170401
0.473091
0.773762
1.06356
1.33137
1.5623
1.73713
1.83479
1.8291
1.65287
1.26313
-1.06873
-1.49884
-1.65794
-1.61118
-1.44929
-1.2081
-0.912793
-0.583647
-0.234311
0.126453
0.492482
0.85825
1.21702
1.55889
1.86849
2.12341
2.29625
2.34922
2.18962
1.75207
-1.76201
-2.23277
-2.34489
-2.20269
-1.9334
-1.58731
-1.19576
-0.780718
-0.354362
0.0777934
0.51365
0.951987
1.39014
1.8214
2.23173
2.59667
2.88207
3.03481
2.92441
2.44532
-2.74582
-3.23205
-3.23677
-2.9352
-2.50663
-2.01828
-1.50605
-0.99065
-0.479605
0.0277205
0.535896
1.0505
1.57561
2.11074
2.64652
3.15958
3.61068
3.92882
3.92987
3.43591
-4.17855
-4.60075
-4.38018
-3.81697
-3.15677
-2.48066
-1.82278
-1.19613
-0.598297
-0.0184313
0.557872
1.14589
1.75966
2.40911
3.0951
3.80206
4.49228
5.07995
5.31309
4.88692
-6.34413
-6.48667
-5.81681
-4.83463
-3.84755
-2.93377
-2.11026
-1.37026
-0.693299
-0.0533688
0.57706
1.2257
1.91985
2.68494
3.54034
4.49079
5.51602
6.53242
7.22514
7.08838
-9.7517
-9.08102
-7.56417
-5.94214
-4.51389
-3.31576
-2.31964
-1.47902
-0.744365
-0.0692333
0.589491
1.27362
2.02617
2.89335
3.92415
5.16403
6.63872
8.30627
9.86024
10.5557
-15.5364
-12.6255
-9.51763
-6.9847
-5.01684
-3.51979
-2.37769
-1.47699
-0.72717
-0.0582698
0.587954
1.26603
2.03422
2.9625
4.14136
5.68449
7.70707
10.2989
13.4647
16.4325
-26.6562
-17.272
-10.9829
-7.32162
-4.90822
-3.25889
-2.11012
-1.26424
-0.591307
-0.00618761
0.554899
1.14955
1.84159
2.71624
3.90366
5.60275
8.0796
11.8177
18.1961
27.6823
-45.2701
-21.7485
-10.5222
-6.00944
-3.66575
-2.26886
-1.38834
-0.780177
-0.31128
0.0920895
0.479245
0.893035
1.38273
2.02186
2.94323
4.39233
6.80707
11.417
22.7573
46.3937
)
;

boundaryField
{
    movingWall
    {
        type            zeroGradient;
    }
    fixedWalls
    {
        type            zeroGradient;
    }
    frontAndBack
    {
        type            empty;
    }
}


// ************************************************************************* //
