/*--------------------------------*- C++ -*----------------------------------*\
  =========                 |
  \\      /  F ield         | OpenFOAM: The Open Source CFD Toolbox
   \\    /   O peration     | Website:  https://openfoam.org
    \\  /    A nd           | Version:  6
     \\/     M anipulation  |
\*---------------------------------------------------------------------------*/
FoamFile
{
    version     2.0;
    format      ascii;
    class       surfaceScalarField;
    location    "0.06";
    object      phi;
}
// * * * * * * * * * * * * * * * * * * * * * * * * * * * * * * * * * * * * * //

dimensions      [0 3 -1 0 0 0 0];

internalField   nonuniform List<scalar> 
760
(
1.48304e-08
-1.48517e-08
-2.0644e-08
3.54744e-08
-1.12516e-07
9.18723e-08
-2.44622e-07
1.32106e-07
-3.96833e-07
1.52211e-07
-5.49726e-07
1.52892e-07
-6.86485e-07
1.36759e-07
-7.93791e-07
1.07306e-07
-8.62097e-07
6.83058e-08
-8.85658e-07
2.35614e-08
-8.62509e-07
-2.31489e-08
-7.94466e-07
-6.80433e-08
-6.87177e-07
-1.07288e-07
-5.50189e-07
-1.36988e-07
-3.9692e-07
-1.53269e-07
-2.44349e-07
-1.52572e-07
-1.12062e-07
-1.32287e-07
-2.02609e-08
-9.18013e-08
1.49837e-08
-3.52446e-08
1.49838e-08
-3.27832e-08
1.79315e-08
-1.77276e-07
1.79967e-07
-4.30665e-07
3.45262e-07
-7.62858e-07
4.64298e-07
-1.13366e-06
5.23014e-07
-1.50168e-06
5.20916e-07
-1.82946e-06
4.64535e-07
-2.0863e-06
3.64151e-07
-2.24973e-06
2.31727e-07
-2.30602e-06
7.98536e-08
-2.25049e-06
-7.86755e-08
-2.08756e-06
-2.30974e-07
-1.83076e-06
-3.64091e-07
-1.50257e-06
-4.65176e-07
-1.13385e-06
-5.21986e-07
-7.62371e-07
-5.24055e-07
-4.29807e-07
-4.6485e-07
-1.76506e-07
-3.45103e-07
-3.24367e-08
-1.79313e-07
-1.74529e-08
-9.02308e-08
1.08162e-07
-3.52918e-07
4.42655e-07
-7.60631e-07
7.52974e-07
-1.26729e-06
9.70955e-07
-1.81769e-06
1.07342e-06
-2.35592e-06
1.05914e-06
-2.83125e-06
9.39867e-07
-3.20191e-06
7.34813e-07
-3.43711e-06
4.66928e-07
-3.51803e-06
1.60769e-07
-3.43821e-06
-1.58491e-07
-3.20375e-06
-4.65436e-07
-2.83322e-06
-7.34615e-07
-2.3574e-06
-9.40999e-07
-1.81826e-06
-1.06113e-06
-1.26689e-06
-1.07542e-06
-7.59631e-07
-9.72114e-07
-3.51916e-07
-7.52818e-07
-8.97407e-08
-4.41489e-07
-1.07194e-07
-1.42744e-07
2.50906e-07
-5.21186e-07
8.21097e-07
-1.07883e-06
1.31061e-06
-1.74934e-06
1.64147e-06
-2.46214e-06
1.78622e-06
-3.14909e-06
1.74608e-06
-3.74982e-06
1.5406e-06
-4.21525e-06
1.20025e-06
-4.50948e-06
7.61155e-07
-4.61063e-06
2.61922e-07
-4.51122e-06
-2.57905e-07
-4.21824e-06
-7.5841e-07
-3.75324e-06
-1.19962e-06
-3.15202e-06
-1.54221e-06
-2.46391e-06
-1.74924e-06
-1.74971e-06
-1.78962e-06
-1.07812e-06
-1.6437e-06
-5.20157e-07
-1.31078e-06
-1.42155e-07
-8.1949e-07
-2.49348e-07
-1.91122e-07
4.42028e-07
-6.82255e-07
1.31223e-06
-1.38738e-06
2.01574e-06
-2.2172e-06
2.47129e-06
-3.0843e-06
2.65332e-06
-3.90881e-06
2.57059e-06
-4.62259e-06
2.25437e-06
-5.17167e-06
1.74933e-06
-5.5173e-06
1.10679e-06
-5.63616e-06
3.80779e-07
-5.52024e-06
-3.73825e-07
-5.17686e-06
-1.10179e-06
-4.62884e-06
-1.74764e-06
-3.91475e-06
-2.2563e-06
-3.08874e-06
-2.57525e-06
-2.21954e-06
-2.65882e-06
-1.3878e-06
-2.47545e-06
-6.81609e-07
-2.01697e-06
-1.9054e-07
-1.31056e-06
-4.39888e-07
-2.3832e-07
6.80348e-07
-8.4214e-07
1.91605e-06
-1.69522e-06
2.86883e-06
-2.68304e-06
3.45911e-06
-3.70001e-06
3.67028e-06
-4.65465e-06
3.52524e-06
-5.47248e-06
3.0722e-06
-6.09674e-06
2.37358e-06
-6.48789e-06
1.49794e-06
-6.62258e-06
5.15472e-07
-6.49279e-06
-5.03613e-07
-6.10557e-06
-1.48901e-06
-5.48351e-06
-2.3697e-06
-4.66579e-06
-3.07403e-06
-3.70929e-06
-3.53174e-06
-2.6892e-06
-3.67891e-06
-1.69806e-06
-3.46659e-06
-8.42579e-07
-2.87245e-06
-2.37947e-07
-1.91519e-06
-6.77835e-07
-2.87398e-07
9.67746e-07
-1.00788e-06
2.63653e-06
-2.01213e-06
3.87307e-06
-3.15771e-06
4.60469e-06
-4.3197e-06
4.83228e-06
-5.39573e-06
4.60127e-06
-6.30694e-06
3.98341e-06
-6.99637e-06
3.06301e-06
-7.4261e-06
1.92767e-06
-7.57443e-06
6.638e-07
-7.43388e-06
-6.44161e-07
-7.01058e-06
-1.9123e-06
-6.32514e-06
-3.05514e-06
-5.41484e-06
-3.98434e-06
-4.33664e-06
-4.60994e-06
-3.17017e-06
-4.84537e-06
-2.01923e-06
-4.61753e-06
-1.01044e-06
-3.88124e-06
-2.87556e-07
-2.63808e-06
-9.65391e-07
-3.41239e-07
1.30899e-06
-1.18615e-06
3.48144e-06
-2.34632e-06
5.03324e-06
-3.6477e-06
5.90607e-06
-4.94535e-06
6.12993e-06
-6.12784e-06
5.78376e-06
-7.11535e-06
4.97092e-06
-7.85449e-06
3.80215e-06
-8.31225e-06
2.38543e-06
-8.47075e-06
8.22303e-07
-8.32382e-06
-7.91093e-07
-7.87586e-06
-2.36026e-06
-7.14325e-06
-3.78775e-06
-6.15798e-06
-4.96962e-06
-4.97319e-06
-5.79472e-06
-3.66949e-06
-6.14908e-06
-2.36003e-06
-5.92698e-06
-1.1922e-06
-5.04907e-06
-3.42384e-07
-3.48789e-06
-1.30778e-06
-4.027e-07
1.71169e-06
-1.38299e-06
4.46173e-06
-2.70333e-06
6.35358e-06
-4.15302e-06
7.35576e-06
-5.56737e-06
7.54428e-06
-6.82984e-06
7.04622e-06
-7.8652e-06
6.00628e-06
-8.62921e-06
4.56617e-06
-9.09831e-06
2.85453e-06
-9.26132e-06
9.85314e-07
-9.11437e-06
-9.38043e-07
-8.65918e-06
-2.81544e-06
-7.90497e-06
-4.54196e-06
-6.87385e-06
-6.00074e-06
-5.6094e-06
-7.05917e-06
-4.18739e-06
-7.57109e-06
-2.72635e-06
-7.38802e-06
-1.39424e-06
-6.38118e-06
-4.05425e-07
-4.47671e-06
-1.7132e-06
-4.75163e-07
2.18685e-06
-1.60438e-06
5.59095e-06
-3.08546e-06
7.83467e-06
-4.66499e-06
8.93529e-06
-6.1609e-06
9.04019e-06
-7.45878e-06
8.3441e-06
-8.49666e-06
7.04415e-06
-9.24727e-06
5.31678e-06
-9.70236e-06
3.30962e-06
-9.86107e-06
1.14403e-06
-9.72308e-06
-1.07604e-06
-9.28632e-06
-3.2522e-06
-8.54935e-06
-5.27893e-06
-7.51845e-06
-7.03164e-06
-6.21962e-06
-8.358e-06
-4.71487e-06
-9.07584e-06
-3.12055e-06
-8.98234e-06
-1.62271e-06
-7.87902e-06
-4.80191e-07
-5.61923e-06
-2.19339e-06
-5.63551e-07
2.7504e-06
-1.85715e-06
6.88455e-06
-3.49093e-06
9.46844e-06
-5.16274e-06
1.06071e-05
-6.68003e-06
1.05575e-05
-7.94286e-06
9.60693e-06
-8.91513e-06
8.01642e-06
-9.59671e-06
5.99836e-06
-1.00016e-05
3.7145e-06
-1.01432e-05
1.28565e-06
-1.00262e-05
-1.19309e-06
-9.64355e-06
-3.63483e-06
-8.97952e-06
-5.94296e-06
-8.01765e-06
-7.99351e-06
-6.75601e-06
-9.61964e-06
-5.22981e-06
-1.0602e-05
-3.5403e-06
-1.06718e-05
-1.88446e-06
-9.53487e-06
-5.71707e-07
-6.93198e-06
-2.7651e-06
-6.76025e-07
3.42642e-06
-2.15007e-06
8.35859e-06
-3.91133e-06
1.12297e-05
-5.60664e-06
1.23024e-05
-7.0484e-06
1.19992e-05
-8.17109e-06
1.07296e-05
-8.98149e-06
8.82681e-06
-9.51833e-06
6.5352e-06
-9.82483e-06
4.021e-06
-9.93215e-06
1.39297e-06
-9.85101e-06
-1.27422e-06
-9.56898e-06
-3.91686e-06
-9.05278e-06
-6.45916e-06
-8.25656e-06
-8.78973e-06
-7.13861e-06
-1.07376e-05
-5.68986e-06
-1.20508e-05
-3.97573e-06
-1.2386e-05
-2.18777e-06
-1.13228e-05
-6.88162e-07
-8.43159e-06
-3.45326e-06
-8.26701e-07
4.25313e-06
-2.49369e-06
1.00256e-05
-4.32458e-06
1.30606e-05
-5.92499e-06
1.39028e-05
-7.14325e-06
1.32175e-05
-7.97809e-06
1.15645e-05
-8.49963e-06
9.34836e-06
-8.79655e-06
6.83212e-06
-8.94581e-06
4.17027e-06
-8.99775e-06
1.44491e-06
-8.9696e-06
-1.30237e-06
-8.8436e-06
-4.04285e-06
-8.56825e-06
-6.73452e-06
-8.06415e-06
-9.29383e-06
-7.23903e-06
-1.15627e-05
-6.01865e-06
-1.32712e-05
-4.40174e-06
-1.40029e-05
-2.54204e-06
-1.31825e-05
-8.43565e-07
-1.01301e-05
-4.29683e-06
-1.03944e-06
5.29256e-06
-2.8957e-06
1.18818e-05
-4.6767e-06
1.48416e-05
-5.98753e-06
1.52137e-05
-6.76843e-06
1.39984e-05
-7.12224e-06
1.19183e-05
-7.20209e-06
9.42821e-06
-7.15181e-06
6.78184e-06
-7.08043e-06
4.09889e-06
-7.05433e-06
1.4188e-06
-7.09609e-06
-1.26061e-06
-7.18439e-06
-3.95455e-06
-7.25321e-06
-6.6657e-06
-7.19213e-06
-9.3549e-06
-6.85365e-06
-1.19012e-05
-6.07893e-06
-1.40459e-05
-4.75926e-06
-1.53226e-05
-2.95249e-06
-1.49893e-05
-1.06138e-06
-1.20212e-05
-5.35821e-06
-1.34973e-06
6.64229e-06
-3.34019e-06
1.38723e-05
-4.83786e-06
1.63393e-05
-5.55418e-06
1.593e-05
-5.61059e-06
1.40548e-05
-5.25643e-06
1.15641e-05
-4.73577e-06
8.90755e-06
-4.23841e-06
6.28448e-06
-3.892e-06
3.75248e-06
-3.7688e-06
1.2956e-06
-3.89305e-06
-1.13636e-06
-4.24373e-06
-3.60387e-06
-4.75098e-06
-6.15845e-06
-5.2876e-06
-8.81828e-06
-5.66132e-06
-1.15275e-05
-5.62184e-06
-1.40854e-05
-4.91073e-06
-1.60337e-05
-3.39865e-06
-1.65014e-05
-1.37601e-06
-1.40438e-05
-6.73422e-06
-1.78874e-06
8.43103e-06
-3.71747e-06
1.5801e-05
-4.50154e-06
1.71233e-05
-4.18153e-06
1.561e-05
-3.1742e-06
1.30475e-05
-1.89511e-06
1.0285e-05
-6.55186e-07
7.66763e-06
3.44698e-07
5.28459e-06
9.87859e-07
3.10932e-06
1.21492e-06
1.06854e-06
1.00642e-06
-9.27862e-07
3.77154e-07
-2.9746e-06
-6.17694e-07
-5.16361e-06
-1.86437e-06
-7.57161e-06
-3.16222e-06
-1.02296e-05
-4.19599e-06
-1.30516e-05
-4.53986e-06
-1.56898e-05
-3.763e-06
-1.72782e-05
-1.81584e-06
-1.5991e-05
-8.55005e-06
-2.30284e-06
1.07339e-05
-3.62943e-06
1.71276e-05
-2.97337e-06
1.64673e-05
-1.06812e-06
1.37047e-05
1.30032e-06
1.0679e-05
3.60882e-06
7.97652e-06
5.56299e-06
5.71346e-06
7.0187e-06
3.82888e-06
7.91462e-06
2.2134e-06
8.22819e-06
7.54971e-07
7.95271e-06
-6.5238e-07
7.09025e-06
-2.11214e-06
5.6585e-06
-3.73185e-06
3.71385e-06
-5.62696e-06
1.39646e-06
-7.91222e-06
-9.99735e-07
-1.06554e-05
-2.94481e-06
-1.37447e-05
-3.63661e-06
-1.65864e-05
-2.32083e-06
-1.73068e-05
-1.08709e-05
-2.49856e-06
1.32324e-05
-1.91536e-06
1.65444e-05
1.23294e-06
1.3319e-05
5.17043e-06
9.76724e-06
8.91081e-06
6.93866e-06
1.20485e-05
4.83879e-06
1.4463e-05
3.29902e-06
1.6154e-05
2.13781e-06
1.71573e-05
1.21013e-06
1.75043e-05
4.08014e-07
1.7206e-05
-3.54124e-07
1.62488e-05
-1.15488e-06
1.45975e-05
-2.08058e-06
1.22116e-05
-3.24106e-06
9.08453e-06
-4.78515e-06
5.33037e-06
-6.90126e-06
1.35282e-06
-9.76718e-06
-1.8527e-06
-1.33809e-05
-2.48675e-06
-1.66727e-05
-1.33576e-05
-5.55432e-07
1.37879e-05
4.68485e-06
1.13041e-05
1.11372e-05
6.86659e-06
1.67194e-05
4.18503e-06
2.10444e-05
2.6137e-06
2.42226e-05
1.66061e-06
2.64609e-05
1.06069e-06
2.79403e-05
6.58417e-07
2.87876e-05
3.62858e-07
2.90757e-05
1.19905e-07
2.88284e-05
-1.06831e-07
2.80221e-05
-3.48593e-07
2.65833e-05
-6.41772e-07
2.43829e-05
-1.04062e-06
2.12346e-05
-1.63691e-06
1.69226e-05
-2.5892e-06
1.13255e-05
-4.1701e-06
4.82485e-06
-6.88028e-06
-4.90263e-07
-1.13576e-05
-1.38479e-05
1.37879e-05
2.5092e-05
3.19586e-05
3.61436e-05
3.87573e-05
4.04179e-05
4.14786e-05
4.2137e-05
4.24999e-05
4.26198e-05
4.2513e-05
4.21644e-05
4.15226e-05
4.0482e-05
3.88451e-05
3.62559e-05
3.20858e-05
2.52055e-05
1.38479e-05
)
;

boundaryField
{
    movingWall
    {
        type            calculated;
        value           uniform 0;
    }
    fixedWalls
    {
        type            calculated;
        value           uniform 0;
    }
    frontAndBack
    {
        type            empty;
        value           nonuniform 0();
    }
}


// ************************************************************************* //
