/*--------------------------------*- C++ -*----------------------------------*\
  =========                 |
  \\      /  F ield         | OpenFOAM: The Open Source CFD Toolbox
   \\    /   O peration     | Website:  https://openfoam.org
    \\  /    A nd           | Version:  6
     \\/     M anipulation  |
\*---------------------------------------------------------------------------*/
FoamFile
{
    version     2.0;
    format      ascii;
    class       surfaceScalarField;
    location    "0.055";
    object      phi;
}
// * * * * * * * * * * * * * * * * * * * * * * * * * * * * * * * * * * * * * //

dimensions      [0 3 -1 0 0 0 0];

internalField   nonuniform List<scalar> 
760
(
8.49945e-09
-8.49968e-09
-2.57721e-08
3.42716e-08
-1.03399e-07
7.76267e-08
-2.096e-07
1.06201e-07
-3.28497e-07
1.18897e-07
-4.45968e-07
1.17471e-07
-5.5041e-07
1.04442e-07
-6.32825e-07
8.24152e-08
-6.86614e-07
5.37889e-08
-7.074e-07
2.07866e-08
-6.93037e-07
-1.43635e-08
-6.43819e-07
-4.92177e-08
-5.62865e-07
-8.09543e-08
-4.5654e-07
-1.06325e-07
-3.34764e-07
-1.21777e-07
-2.1094e-07
-1.23824e-07
-1.01209e-07
-1.09731e-07
-2.27519e-08
-7.8457e-08
1.00029e-08
-3.27548e-08
1.00029e-08
-3.25072e-08
2.40076e-08
-1.56158e-07
1.57923e-07
-3.62404e-07
2.83873e-07
-6.24587e-07
3.68385e-07
-9.11192e-07
4.05502e-07
-1.19199e-06
3.98272e-07
-1.44085e-06
3.53294e-07
-1.63675e-06
2.78314e-07
-1.76405e-06
1.81089e-07
-1.81246e-06
6.91974e-08
-1.7772e-06
-4.96152e-08
-1.65948e-06
-1.66942e-07
-1.46711e-06
-2.73328e-07
-1.2152e-06
-3.58235e-07
-9.26391e-07
-4.10583e-07
-6.30154e-07
-4.20061e-07
-3.60498e-07
-3.79386e-07
-1.51534e-07
-2.87421e-07
-2.9743e-08
-1.54546e-07
-1.974e-08
-7.80832e-08
1.02091e-07
-2.94057e-07
3.73896e-07
-6.19251e-07
6.09067e-07
-1.01444e-06
7.63574e-07
-1.43689e-06
8.27948e-07
-1.84589e-06
8.07276e-07
-2.20599e-06
7.13392e-07
-2.48842e-06
5.6075e-07
-2.67164e-06
3.64303e-07
-2.74142e-06
1.3898e-07
-2.69118e-06
-9.98491e-08
-2.52257e-06
-3.35556e-07
-2.24629e-06
-5.49613e-07
-1.88291e-06
-7.21607e-07
-1.46316e-06
-8.30339e-07
-1.02683e-06
-8.56389e-07
-6.19908e-07
-7.86307e-07
-2.89194e-07
-6.18135e-07
-7.44973e-08
-3.69242e-07
-9.42371e-08
-1.18558e-07
2.2065e-07
-4.23534e-07
6.78872e-07
-8.6331e-07
1.04884e-06
-1.38314e-06
1.2834e-06
-1.92897e-06
1.37377e-06
-2.45138e-06
1.32969e-06
-2.90813e-06
1.17014e-06
-3.26522e-06
9.17843e-07
-3.4972e-06
5.96274e-07
-3.58712e-06
2.28907e-07
-3.52686e-06
-1.60107e-07
-3.31776e-06
-5.44662e-07
-2.97172e-06
-8.95655e-07
-2.5124e-06
-1.18092e-06
-1.97588e-06
-1.36686e-06
-1.40993e-06
-1.42234e-06
-8.71306e-07
-1.32493e-06
-4.20495e-07
-1.06895e-06
-1.14492e-07
-6.75245e-07
-2.08729e-07
-1.56103e-07
3.76753e-07
-5.48676e-07
1.07145e-06
-1.103e-06
1.60317e-06
-1.74674e-06
1.92714e-06
-2.41343e-06
2.04046e-06
-3.04521e-06
1.96148e-06
-3.5942e-06
1.71913e-06
-4.02263e-06
1.34627e-06
-4.30238e-06
8.7603e-07
-4.41453e-06
3.41052e-07
-4.34929e-06
-2.25348e-07
-4.1068e-06
-7.87149e-07
-3.69861e-06
-1.30384e-06
-3.14954e-06
-1.72999e-06
-2.49927e-06
-2.01713e-06
-1.80273e-06
-2.11888e-06
-1.12812e-06
-1.99954e-06
-5.52167e-07
-1.6449e-06
-1.52667e-07
-1.07475e-06
-3.61396e-07
-1.941e-07
5.70853e-07
-6.77464e-07
1.55481e-06
-1.35129e-06
2.27699e-06
-2.1237e-06
2.69955e-06
-2.91455e-06
2.83132e-06
-3.65742e-06
2.70434e-06
-4.2995e-06
2.36121e-06
-4.80039e-06
1.84716e-06
-5.13037e-06
1.20601e-06
-5.269e-06
4.79681e-07
-5.20466e-06
-2.89691e-07
-4.93526e-06
-1.05654e-06
-4.4703e-06
-1.76881e-06
-3.83375e-06
-2.36654e-06
-3.06727e-06
-2.78361e-06
-2.23231e-06
-2.95384e-06
-1.40979e-06
-2.82206e-06
-6.95892e-07
-2.3588e-06
-1.93601e-07
-1.57704e-06
-5.54997e-07
-2.35767e-07
8.0662e-07
-8.18084e-07
2.13713e-06
-1.62094e-06
3.07984e-06
-2.5303e-06
3.60892e-06
-3.45109e-06
3.75211e-06
-4.30834e-06
3.56159e-06
-5.04542e-06
3.09828e-06
-5.6207e-06
2.42244e-06
-6.00413e-06
1.58944e-06
-6.17453e-06
6.50074e-07
-6.11828e-06
-3.45936e-07
-5.83e-06
-1.34482e-06
-5.31509e-06
-2.28372e-06
-4.59413e-06
-3.0875e-06
-3.70831e-06
-3.66943e-06
-2.72432e-06
-3.93783e-06
-1.73657e-06
-3.80981e-06
-8.64376e-07
-3.23099e-06
-2.42032e-07
-2.19938e-06
-7.97029e-07
-2.83964e-07
1.09058e-06
-9.77762e-07
2.83092e-06
-1.92227e-06
4.02436e-06
-2.97767e-06
4.66432e-06
-4.03274e-06
4.80717e-06
-5.00479e-06
4.53365e-06
-5.83526e-06
3.92875e-06
-6.4836e-06
3.07079e-06
-6.92151e-06
2.02734e-06
-7.12833e-06
8.56897e-07
-7.08875e-06
-3.85517e-07
-6.79299e-06
-1.64058e-06
-6.23998e-06
-2.83673e-06
-5.4434e-06
-3.88408e-06
-4.44001e-06
-4.67282e-06
-3.29862e-06
-5.07922e-06
-2.1266e-06
-4.98182e-06
-1.06999e-06
-4.28761e-06
-3.02675e-07
-2.9667e-06
-1.0997e-06
-3.41272e-07
1.43186e-06
-1.1624e-06
3.65205e-06
-2.26191e-06
5.12387e-06
-3.46931e-06
5.87172e-06
-4.65656e-06
5.99442e-06
-5.73534e-06
5.61243e-06
-6.64859e-06
4.84199e-06
-7.36058e-06
3.78278e-06
-7.84795e-06
2.51471e-06
-8.0929e-06
1.10184e-06
-8.07932e-06
-3.99098e-07
-7.79233e-06
-1.92757e-06
-7.2217e-06
-3.40735e-06
-6.36957e-06
-4.73622e-06
-5.2622e-06
-5.78019e-06
-3.96451e-06
-6.37692e-06
-2.5934e-06
-6.35292e-06
-1.32402e-06
-5.55699e-06
-3.80296e-07
-3.91042e-06
-1.48e-06
-4.10389e-07
1.84224e-06
-1.37685e-06
4.61851e-06
-2.64198e-06
6.389e-06
-3.99872e-06
7.22845e-06
-5.30279e-06
7.2985e-06
-6.46458e-06
6.77422e-06
-7.43422e-06
5.81163e-06
-8.18639e-06
4.53496e-06
-8.70746e-06
3.03578e-06
-8.98599e-06
1.38037e-06
-9.00705e-06
-3.78038e-07
-8.75066e-06
-2.18395e-06
-8.19493e-06
-3.96308e-06
-7.32485e-06
-5.60629e-06
-6.14768e-06
-6.95736e-06
-4.71424e-06
-7.81036e-06
-3.14266e-06
-7.92451e-06
-1.63605e-06
-7.06359e-06
-4.80048e-07
-5.06643e-06
-1.96005e-06
-4.94985e-07
2.33723e-06
-1.62585e-06
5.74938e-06
-3.05962e-06
7.82277e-06
-4.5465e-06
8.71534e-06
-5.92959e-06
8.68159e-06
-7.12596e-06
7.97058e-06
-8.10174e-06
6.78741e-06
-8.84986e-06
5.28308e-06
-9.37269e-06
3.55862e-06
-9.66994e-06
1.67762e-06
-9.7311e-06
-3.16878e-07
-9.53235e-06
-2.3827e-06
-9.03853e-06
-4.45691e-06
-8.21186e-06
-6.43296e-06
-7.02986e-06
-8.13937e-06
-5.51403e-06
-9.32619e-06
-3.76766e-06
-9.67088e-06
-2.01326e-06
-8.81799e-06
-6.08127e-07
-6.47156e-06
-2.56817e-06
-6.01348e-07
2.93858e-06
-1.91552e-06
7.06355e-06
-3.50583e-06
9.41308e-06
-5.0757e-06
1.02852e-05
-6.4654e-06
1.00713e-05
-7.61248e-06
9.11766e-06
-8.51176e-06
7.68669e-06
-9.1843e-06
5.95561e-06
-9.65578e-06
4.03011e-06
-9.94253e-06
1.96437e-06
-1.00427e-05
-2.16682e-07
-9.93169e-06
-2.49373e-06
-9.56158e-06
-4.82702e-06
-8.86784e-06
-7.1267e-06
-7.78699e-06
-9.22022e-06
-6.29102e-06
-1.08222e-05
-4.4418e-06
-1.15201e-05
-2.45884e-06
-1.08009e-05
-7.72936e-07
-8.15746e-06
-3.34111e-06
-7.4137e-07
3.67995e-06
-2.25512e-06
8.5773e-06
-3.96184e-06
1.11198e-05
-5.52248e-06
1.18458e-05
-6.7962e-06
1.1345e-05
-7.76335e-06
1.00848e-05
-8.46414e-06
8.38749e-06
-8.95848e-06
6.44995e-06
-9.30193e-06
4.37356e-06
-9.53209e-06
2.19453e-06
-9.66028e-06
-8.84937e-08
-9.66576e-06
-2.48826e-06
-9.49213e-06
-5.00065e-06
-9.04861e-06
-7.57021e-06
-8.2226e-06
-1.00462e-05
-6.91427e-06
-1.21305e-05
-5.10556e-06
-1.33288e-05
-2.96825e-06
-1.29383e-05
-9.86954e-07
-1.01388e-05
-4.32807e-06
-9.37377e-07
4.61732e-06
-2.65647e-06
1.02964e-05
-4.38715e-06
1.28505e-05
-5.77529e-06
1.3234e-05
-6.74185e-06
1.23116e-05
-7.34285e-06
1.06858e-05
-7.68276e-06
8.7274e-06
-7.8684e-06
6.63559e-06
-7.9876e-06
4.49276e-06
-8.10025e-06
2.30718e-06
-8.23347e-06
4.473e-08
-8.3764e-06
-2.34533e-06
-8.47301e-06
-4.90404e-06
-8.41504e-06
-7.62818e-06
-8.04233e-06
-1.04189e-05
-7.16632e-06
-1.30065e-05
-5.64242e-06
-1.48527e-05
-3.51899e-06
-1.50617e-05
-1.26874e-06
-1.2389e-05
-5.59681e-06
-1.22721e-06
5.84453e-06
-3.12148e-06
1.21907e-05
-4.68406e-06
1.4413e-05
-5.62785e-06
1.41778e-05
-6.01085e-06
1.26946e-05
-6.00571e-06
1.06807e-05
-5.79491e-06
8.5166e-06
-5.53062e-06
6.3713e-06
-5.3256e-06
4.28774e-06
-5.25541e-06
2.23698e-06
-5.36104e-06
1.50363e-07
-5.64676e-06
-2.05962e-06
-6.07046e-06
-4.48034e-06
-6.52679e-06
-7.17185e-06
-6.82803e-06
-1.01177e-05
-6.70011e-06
-1.31344e-05
-5.83205e-06
-1.57208e-05
-4.0416e-06
-1.68521e-05
-1.64051e-06
-1.47901e-05
-7.23733e-06
-1.65679e-06
7.50132e-06
-3.58545e-06
1.41193e-05
-4.60256e-06
1.54301e-05
-4.67875e-06
1.4254e-05
-4.11882e-06
1.21346e-05
-3.24383e-06
9.80567e-06
-2.306e-06
7.57877e-06
-1.48018e-06
5.54548e-06
-8.80622e-07
3.68818e-06
-5.80648e-07
1.93701e-06
-6.2585e-07
1.95565e-07
-1.03733e-06
-1.64814e-06
-1.80258e-06
-3.71508e-06
-2.85119e-06
-6.12324e-06
-4.01401e-06
-8.95489e-06
-4.9757e-06
-1.21727e-05
-5.25985e-06
-1.54366e-05
-4.34086e-06
-1.77711e-05
-2.10216e-06
-1.70288e-05
-9.33949e-06
-2.21646e-06
9.71778e-06
-3.73072e-06
1.56336e-05
-3.511e-06
1.52104e-05
-2.13724e-06
1.28802e-05
-2.59323e-07
1.02567e-05
1.68032e-06
7.86603e-06
3.41925e-06
5.83983e-06
4.81592e-06
4.14882e-06
5.79689e-06
2.70721e-06
6.31955e-06
1.41434e-06
6.35026e-06
1.64863e-07
5.8555e-06
-1.15338e-06
4.80659e-06
-2.66618e-06
3.20304e-06
-4.51969e-06
1.125e-06
-6.87685e-06
-1.17525e-06
-9.87246e-06
-3.15444e-06
-1.34574e-05
-3.91131e-06
-1.70143e-05
-2.53481e-06
-1.84053e-05
-1.18743e-05
-2.60067e-06
1.23185e-05
-2.46884e-06
1.55018e-05
9.75613e-08
1.2644e-05
3.50227e-06
9.47551e-06
6.85561e-06
6.90339e-06
9.77708e-06
4.94456e-06
1.21336e-05
3.48332e-06
1.39033e-05
2.3791e-06
1.51027e-05
1.50788e-06
1.57473e-05
7.69725e-07
1.58322e-05
7.98916e-08
1.53223e-05
-6.43469e-07
1.41496e-05
-1.4935e-06
1.2223e-05
-2.59308e-06
9.4645e-06
-4.11832e-06
5.90557e-06
-6.31353e-06
1.8938e-06
-9.44569e-06
-1.54475e-06
-1.35757e-05
-2.4468e-06
-1.75032e-05
-1.43211e-05
-1.04016e-06
1.33586e-05
3.59439e-06
1.08672e-05
9.55636e-06
6.68205e-06
1.48299e-05
4.20198e-06
1.90253e-05
2.70798e-06
2.22075e-05
1.76237e-06
2.45393e-05
1.15147e-06
2.61769e-05
7.41505e-07
2.72378e-05
4.46979e-07
2.77939e-05
2.13691e-07
2.78699e-05
3.88518e-09
2.74411e-05
-2.14709e-07
2.64262e-05
-4.78558e-07
2.46746e-05
-8.41458e-07
2.19541e-05
-1.39787e-06
1.79663e-05
-2.3257e-06
1.2479e-05
-3.95839e-06
5.78601e-06
-6.88274e-06
-8.5199e-09
-1.17087e-05
-1.43296e-05
1.33586e-05
2.42258e-05
3.09079e-05
3.51099e-05
3.78178e-05
3.95802e-05
4.07317e-05
4.14732e-05
4.19202e-05
4.21339e-05
4.21377e-05
4.1923e-05
4.14445e-05
4.0603e-05
3.92051e-05
3.68794e-05
3.29211e-05
2.60383e-05
1.43296e-05
)
;

boundaryField
{
    movingWall
    {
        type            calculated;
        value           uniform 0;
    }
    fixedWalls
    {
        type            calculated;
        value           uniform 0;
    }
    frontAndBack
    {
        type            empty;
        value           nonuniform 0();
    }
}


// ************************************************************************* //
