/*--------------------------------*- C++ -*----------------------------------*\
  =========                 |
  \\      /  F ield         | OpenFOAM: The Open Source CFD Toolbox
   \\    /   O peration     | Website:  https://openfoam.org
    \\  /    A nd           | Version:  6
     \\/     M anipulation  |
\*---------------------------------------------------------------------------*/
FoamFile
{
    version     2.0;
    format      ascii;
    class       volVectorField;
    location    "0.055";
    object      U;
}
// * * * * * * * * * * * * * * * * * * * * * * * * * * * * * * * * * * * * * //

dimensions      [0 1 -1 0 0 0 0];

internalField   nonuniform List<vector> 
400
(
(0.00016983 -0.000167599 0)
(-2.79139e-06 0.000146802 0)
(-0.0011498 0.000502301 0)
(-0.00304791 0.000737174 0)
(-0.00535992 0.000843043 0)
(-0.00777749 0.000839097 0)
(-0.0100408 0.000748336 0)
(-0.0119432 0.000592142 0)
(-0.0133291 0.00038861 0)
(-0.0140887 0.000153462 0)
(-0.0141564 -9.79605e-05 0)
(-0.0135126 -0.000348625 0)
(-0.01219 -0.000578204 0)
(-0.0102822 -0.000762337 0)
(-0.007952 -0.000873195 0)
(-0.00543509 -0.000881937 0)
(-0.0030325 -0.000763796 0)
(-0.0010891 -0.000505854 0)
(4.80639e-05 -0.00013099 0)
(0.000186632 0.000181717 0)
(-0.000120554 -1.99573e-05 0)
(-0.00147423 0.00149842 0)
(-0.00484631 0.00302944 0)
(-0.00968445 0.00406427 0)
(-0.0153205 0.00452957 0)
(-0.0211269 0.00447219 0)
(-0.0265344 0.00397735 0)
(-0.0310681 0.00313918 0)
(-0.0343608 0.00204796 0)
(-0.0361529 0.000789506 0)
(-0.0362927 -0.000549449 0)
(-0.0347416 -0.00187426 0)
(-0.0315869 -0.00307702 0)
(-0.0270556 -0.00403542 0)
(-0.0215264 -0.00461823 0)
(-0.0155277 -0.00470009 0)
(-0.00970611 -0.00418809 0)
(-0.00476083 -0.00306032 0)
(-0.00138612 -0.00144646 0)
(-8.84195e-05 7.6029e-05 0)
(-0.000476873 0.00108308 0)
(-0.00312039 0.00488296 0)
(-0.0086626 0.00834178 0)
(-0.0161011 0.0106588 0)
(-0.0244868 0.0116635 0)
(-0.0329858 0.0114273 0)
(-0.0408326 0.0101257 0)
(-0.0473795 0.00797199 0)
(-0.0521218 0.0051844 0)
(-0.0547014 0.00197922 0)
(-0.0549086 -0.00142145 0)
(-0.0526904 -0.00477701 0)
(-0.0481663 -0.0078185 0)
(-0.0416462 -0.0102486 0)
(-0.0336447 -0.0117576 0)
(-0.0248768 -0.0120614 0)
(-0.0162127 -0.0109643 0)
(-0.00859097 -0.00844519 0)
(-0.00301224 -0.00479339 0)
(-0.000432677 -0.000962037 0)
(-0.000781878 0.00306082 0)
(-0.00464006 0.0101182 0)
(-0.0122891 0.016033 0)
(-0.022203 0.0198708 0)
(-0.0331224 0.0214258 0)
(-0.0440287 0.0208294 0)
(-0.0540074 0.0183778 0)
(-0.0622911 0.014434 0)
(-0.0682844 0.00937577 0)
(-0.0715636 0.00358258 0)
(-0.0718765 -0.00255448 0)
(-0.0691507 -0.00861256 0)
(-0.063513 -0.0141214 0)
(-0.0553141 -0.0185638 0)
(-0.0451513 -0.0214036 0)
(-0.0338723 -0.0221504 0)
(-0.0225307 -0.0204627 0)
(-0.0122978 -0.0162831 0)
(-0.00453047 -0.0100128 0)
(-0.00072583 -0.0028587 0)
(-0.00105237 0.00580946 0)
(-0.00608064 0.0170911 0)
(-0.015831 0.0259673 0)
(-0.0282193 0.0315026 0)
(-0.0416406 0.0335545 0)
(-0.0548839 0.0323819 0)
(-0.0669025 0.0284479 0)
(-0.076838 0.0222979 0)
(-0.0840339 0.0144924 0)
(-0.0880221 0.00559027 0)
(-0.0885141 -0.00383408 0)
(-0.0854083 -0.0131601 0)
(-0.0788133 -0.0216944 0)
(-0.0690834 -0.0286683 0)
(-0.0568589 -0.0332744 0)
(-0.0430915 -0.0347571 0)
(-0.0290132 -0.0325604 0)
(-0.0160613 -0.0265124 0)
(-0.00601834 -0.017042 0)
(-0.000990092 -0.00552396 0)
(-0.00132048 0.00930168 0)
(-0.00755122 0.0258236 0)
(-0.0194927 0.0382137 0)
(-0.0344612 0.0456312 0)
(-0.050468 0.0481055 0)
(-0.0660961 0.046113 0)
(-0.0801746 0.0403489 0)
(-0.0917758 0.0315815 0)
(-0.100206 0.0205753 0)
(-0.104969 0.00807613 0)
(-0.105744 -0.00515828 0)
(-0.102389 -0.0183085 0)
(-0.0949647 -0.0304484 0)
(-0.0837901 -0.0405294 0)
(-0.0695088 -0.0474203 0)
(-0.0531495 -0.050021 0)
(-0.0361269 -0.0474573 0)
(-0.0201881 -0.0393304 0)
(-0.00763021 -0.0259973 0)
(-0.0012669 -0.00896303 0)
(-0.00161603 0.0135796 0)
(-0.0091633 0.0364339 0)
(-0.0234857 0.0529288 0)
(-0.0412239 0.0624071 0)
(-0.0599596 0.0651964 0)
(-0.0780598 0.0621035 0)
(-0.0942436 0.054138 0)
(-0.107541 0.0423406 0)
(-0.117251 0.0276989 0)
(-0.122873 0.0111434 0)
(-0.124059 -0.00639954 0)
(-0.120614 -0.0239277 0)
(-0.11252 -0.0402859 0)
(-0.100013 -0.0541255 0)
(-0.0836847 -0.0639322 0)
(-0.0645989 -0.0681582 0)
(-0.0443418 -0.0654688 0)
(-0.0250124 -0.0550802 0)
(-0.00953493 -0.037147 0)
(-0.00159855 -0.0132781 0)
(-0.00196582 0.0187464 0)
(-0.0110181 0.0491329 0)
(-0.0279935 0.0703427 0)
(-0.0487332 0.0820183 0)
(-0.070333 0.0849474 0)
(-0.0909452 0.0804122 0)
(-0.109211 0.0698398 0)
(-0.124165 0.0546001 0)
(-0.135143 0.03592 0)
(-0.141675 0.0148995 0)
(-0.143407 -0.00740001 0)
(-0.14008 -0.0298317 0)
(-0.131564 -0.0510376 0)
(-0.117949 -0.0693625 0)
(-0.0996976 -0.082852 0)
(-0.0778306 -0.0893859 0)
(-0.0540587 -0.0869797 0)
(-0.0308531 -0.0742382 0)
(-0.0119027 -0.0509168 0)
(-0.00202806 -0.0186666 0)
(-0.00239575 0.0249597 0)
(-0.0132064 0.0642105 0)
(-0.0331567 0.090729 0)
(-0.0571083 0.104637 0)
(-0.0816071 0.107408 0)
(-0.104615 0.100992 0)
(-0.124758 0.08736 0)
(-0.14115 0.068277 0)
(-0.153238 0.0452175 0)
(-0.160639 0.0194197 0)
(-0.163025 -0.00797795 0)
(-0.16008 -0.0357516 0)
(-0.151527 -0.062399 0)
(-0.137236 -0.0859822 0)
(-0.117429 -0.104065 0)
(-0.0929538 -0.113818 0)
(-0.0655345 -0.112365 0)
(-0.0379842 -0.0973728 0)
(-0.0149032 -0.0678793 0)
(-0.00260241 -0.0254211 0)
(-0.00293669 0.0324281 0)
(-0.0158192 0.0820127 0)
(-0.039072 0.114348 0)
(-0.0663323 0.130328 0)
(-0.0935368 0.132442 0)
(-0.118523 0.123561 0)
(-0.140013 0.106363 0)
(-0.157319 0.0830716 0)
(-0.170105 0.0554065 0)
(-0.178158 0.0246906 0)
(-0.181234 -0.00794726 0)
(-0.178981 -0.0413116 0)
(-0.170952 -0.0738593 0)
(-0.15672 -0.103443 0)
(-0.136122 -0.127143 0)
(-0.109635 -0.141298 0)
(-0.078787 -0.141842 0)
(-0.0466032 -0.125051 0)
(-0.0187115 -0.0887234 0)
(-0.00337961 -0.0339334 0)
(-0.00363624 0.0414214 0)
(-0.0189719 0.102919 0)
(-0.0458012 0.141364 0)
(-0.076219 0.158916 0)
(-0.105529 0.159565 0)
(-0.131589 0.147446 0)
(-0.153398 0.126122 0)
(-0.170638 0.0983379 0)
(-0.183332 0.0660337 0)
(-0.19155 0.0305359 0)
(-0.19521 -0.00715613 0)
(-0.193973 -0.0460215 0)
(-0.187225 -0.084636 0)
(-0.174173 -0.120787 0)
(-0.15411 -0.151151 0)
(-0.126874 -0.171161 0)
(-0.0934557 -0.175249 0)
(-0.0567844 -0.157687 0)
(-0.0235192 -0.114203 0)
(-0.00444146 -0.0447078 0)
(-0.00458166 0.052304 0)
(-0.0228483 0.127321 0)
(-0.0533831 0.171733 0)
(-0.0863559 0.189802 0)
(-0.116515 0.18774 0)
(-0.142018 0.171376 0)
(-0.162426 0.145346 0)
(-0.178017 0.112944 0)
(-0.189343 0.0762676 0)
(-0.196879 0.036531 0)
(-0.200803 -0.00554513 0)
(-0.200863 -0.0492978 0)
(-0.196319 -0.0936383 0)
(-0.185993 -0.136525 0)
(-0.168491 -0.17443 0)
(-0.142705 -0.201939 0)
(-0.108586 -0.211722 0)
(-0.0683935 -0.195292 0)
(-0.0295507 -0.145051 0)
(-0.00591648 -0.0583953 0)
(-0.00594383 0.0656177 0)
(-0.0277694 0.155599 0)
(-0.0618229 0.205009 0)
(-0.0959673 0.221686 0)
(-0.124716 0.215094 0)
(-0.147032 0.193253 0)
(-0.163447 0.16201 0)
(-0.175104 0.125155 0)
(-0.183244 0.0848122 0)
(-0.188851 0.0419301 0)
(-0.192445 -0.00321704 0)
(-0.193956 -0.0505222 0)
(-0.192616 -0.0994872 0)
(-0.186928 -0.148567 0)
(-0.174762 -0.194401 0)
(-0.153783 -0.231008 0)
(-0.122283 -0.249243 0)
(-0.0809165 -0.237085 0)
(-0.0370744 -0.181822 0)
(-0.0080189 -0.075862 0)
(-0.00805305 0.0822456 0)
(-0.0342749 0.188048 0)
(-0.0709701 0.240012 0)
(-0.103561 0.252148 0)
(-0.127167 0.238571 0)
(-0.142398 0.209933 0)
(-0.151274 0.173254 0)
(-0.156048 0.132604 0)
(-0.158731 0.0899043 0)
(-0.16083 0.0456476 0)
(-0.163238 -0.0004971 0)
(-0.166143 -0.0491474 0)
(-0.168909 -0.100638 0)
(-0.169914 -0.1543 0)
(-0.166442 -0.207481 0)
(-0.154835 -0.254263 0)
(-0.131136 -0.284071 0)
(-0.0930857 -0.280859 0)
(-0.0463554 -0.224565 0)
(-0.0111022 -0.0982972 0)
(-0.0114922 0.103672 0)
(-0.0431039 0.224607 0)
(-0.0800159 0.274179 0)
(-0.106041 0.277042 0)
(-0.118743 0.253562 0)
(-0.121604 0.217112 0)
(-0.118624 0.175456 0)
(-0.113233 0.132463 0)
(-0.108085 0.0894893 0)
(-0.105049 0.046366 0)
(-0.105286 0.00205718 0)
(-0.10927 -0.0448476 0)
(-0.116682 -0.0956525 0)
(-0.126131 -0.150897 0)
(-0.134769 -0.209292 0)
(-0.137945 -0.266 0)
(-0.129228 -0.310143 0)
(-0.102032 -0.322039 0)
(-0.0573511 -0.272136 0)
(-0.0156685 -0.12731 0)
(-0.0170404 0.132413 0)
(-0.0545891 0.264083 0)
(-0.0858614 0.302344 0)
(-0.0966086 0.289661 0)
(-0.0902667 0.25367 0)
(-0.0744979 0.209558 0)
(-0.0553529 0.164715 0)
(-0.0370364 0.12198 0)
(-0.0223413 0.08169 0)
(-0.0130651 0.042852 0)
(-0.0103543 0.00375658 0)
(-0.0148831 -0.0376804 0)
(-0.026807 -0.0836431 0)
(-0.0454407 -0.135989 0)
(-0.0686104 -0.195356 0)
(-0.0916892 -0.25928 0)
(-0.106497 -0.318668 0)
(-0.101398 -0.352378 0)
(-0.0685444 -0.320897 0)
(-0.022055 -0.165061 0)
(-0.0247699 0.172976 0)
(-0.0660151 0.302003 0)
(-0.0786165 0.314121 0)
(-0.0602715 0.279448 0)
(-0.0252281 0.23074 0)
(0.0145993 0.181881 0)
(0.0523103 0.137864 0)
(0.0841579 0.099456 0)
(0.108199 0.065599 0)
(0.123409 0.0345014 0)
(0.129097 0.00403157 0)
(0.12461 -0.0281897 0)
(0.109271 -0.0648001 0)
(0.0826326 -0.108647 0)
(0.0451724 -0.162381 0)
(-0.000274637 -0.227004 0)
(-0.0461813 -0.29809 0)
(-0.0775557 -0.358112 0)
(-0.0736721 -0.362197 0)
(-0.0289141 -0.214657 0)
(-0.0293519 0.230222 0)
(-0.0628341 0.323988 0)
(-0.0308501 0.289875 0)
(0.0344545 0.231771 0)
(0.104841 0.176745 0)
(0.168651 0.130979 0)
(0.221763 0.0946702 0)
(0.263049 0.0659303 0)
(0.292671 0.0424571 0)
(0.311081 0.0220821 0)
(0.318459 0.00277886 0)
(0.314434 -0.0175091 0)
(0.297968 -0.0411198 0)
(0.267381 -0.0709816 0)
(0.220743 -0.110872 0)
(0.157068 -0.165114 0)
(0.0787704 -0.236313 0)
(-0.00268182 -0.318412 0)
(-0.0537234 -0.375446 0)
(-0.0275001 -0.275448 0)
(0.00651083 0.275623 0)
(0.0146109 0.288688 0)
(0.126643 0.206927 0)
(0.246976 0.141475 0)
(0.343159 0.0962684 0)
(0.416336 0.0653006 0)
(0.470817 0.0440395 0)
(0.509987 0.0290722 0)
(0.536586 0.0179457 0)
(0.552542 0.00894266 0)
(0.558846 0.000766311 0)
(0.555521 -0.00774864 0)
(0.541539 -0.0179242 0)
(0.514618 -0.031628 0)
(0.470986 -0.0518877 0)
(0.405297 -0.0837613 0)
(0.310266 -0.135049 0)
(0.180422 -0.214785 0)
(0.048791 -0.314644 0)
(0.0236471 -0.304595 0)
(0.298194 0.144549 0)
(0.391888 0.126678 0)
(0.548683 0.0765093 0)
(0.664658 0.0445686 0)
(0.733894 0.0263271 0)
(0.776966 0.0157436 0)
(0.805114 0.00950371 0)
(0.823506 0.0056995 0)
(0.835068 0.00321437 0)
(0.841502 0.00140058 0)
(0.843635 -0.000145655 0)
(0.84161 -0.00173481 0)
(0.834913 -0.00370525 0)
(0.822164 -0.0065818 0)
(0.800623 -0.0113711 0)
(0.765048 -0.0201543 0)
(0.703652 -0.0372044 0)
(0.591041 -0.0705381 0)
(0.423576 -0.126721 0)
(0.31349 -0.149809 0)
)
;

boundaryField
{
    movingWall
    {
        type            fixedValue;
        value           uniform (1 0 0);
    }
    fixedWalls
    {
        type            noSlip;
    }
    frontAndBack
    {
        type            empty;
    }
}


// ************************************************************************* //
