/*--------------------------------*- C++ -*----------------------------------*\
  =========                 |
  \\      /  F ield         | OpenFOAM: The Open Source CFD Toolbox
   \\    /   O peration     | Website:  https://openfoam.org
    \\  /    A nd           | Version:  6
     \\/     M anipulation  |
\*---------------------------------------------------------------------------*/
FoamFile
{
    version     2.0;
    format      ascii;
    class       volScalarField;
    location    "0.03";
    object      p;
}
// * * * * * * * * * * * * * * * * * * * * * * * * * * * * * * * * * * * * * //

dimensions      [0 2 -2 0 0 0 0];

internalField   nonuniform List<scalar> 
400
(
1.76778e-06
-0.0347957
-0.0781207
-0.111546
-0.124054
-0.110702
-0.0711173
-0.00822667
0.0727959
0.165318
0.261865
0.354653
0.43611
0.499438
0.539301
0.552673
0.539939
0.506182
0.462633
0.427847
0.0344778
-0.00126764
-0.0352703
-0.0583257
-0.0649927
-0.0517957
-0.0182886
0.0334169
0.0993942
0.17448
0.25277
0.328083
0.394431
0.446515
0.480269
0.493494
0.486644
0.463302
0.429103
0.393397
0.0803069
0.0307834
-0.00601787
-0.0272976
-0.0327226
-0.0203856
0.00967817
0.0554188
0.113393
0.179176
0.247728
0.313767
0.372165
0.418347
0.448714
0.461112
0.4555
0.43389
0.396835
0.347341
0.122557
0.0540287
0.00824766
-0.0160306
-0.0226495
-0.0110906
0.0178926
0.0618729
0.117381
0.180211
0.245666
0.308842
0.364932
0.409541
0.438994
0.450713
0.443911
0.419216
0.37305
0.304463
0.151497
0.0628548
0.00630661
-0.0222589
-0.0302594
-0.0184118
0.0117354
0.0571797
0.114172
0.178448
0.245378
0.310151
0.367993
0.414392
0.445317
0.45754
0.449425
0.420356
0.363225
0.274321
0.16016
0.0509528
-0.0168402
-0.0495689
-0.057923
-0.0437994
-0.0096235
0.040871
0.103466
0.173645
0.246644
0.317546
0.3814
0.433361
0.468823
0.483715
0.475437
0.442157
0.373519
0.26369
0.1425
0.0120597
-0.0668059
-0.102511
-0.109092
-0.089735
-0.0478901
0.0118133
0.0845371
0.165377
0.249314
0.331203
0.405782
0.467717
0.511639
0.532424
0.526312
0.490107
0.410083
0.278451
0.0920382
-0.0606999
-0.149871
-0.186221
-0.187664
-0.158996
-0.104945
-0.0312219
0.0565999
0.15317
0.253187
0.351258
0.441778
0.518836
0.576148
0.607293
0.607035
0.570427
0.479765
0.325014
0.000756765
-0.175737
-0.273677
-0.306903
-0.298291
-0.254848
-0.182955
-0.0896168
0.0187916
0.13651
0.258051
0.377883
0.49014
0.588353
0.665212
0.712723
0.723717
0.690803
0.591099
0.411491
-0.141974
-0.343933
-0.447798
-0.472027
-0.446308
-0.380811
-0.284081
-0.164631
-0.029618
0.114964
0.263695
0.411184
0.551555
0.677941
0.781993
0.853866
0.883845
0.861021
0.755303
0.548871
-0.350844
-0.579861
-0.684394
-0.690416
-0.637434
-0.54017
-0.409946
-0.256933
-0.0888777
0.0883696
0.269929
0.451058
0.62635
0.788928
0.929578
1.0364
1.09643
1.09368
0.987602
0.752593
-0.647048
-0.903625
-0.999
-0.972163
-0.877183
-0.735184
-0.560856
-0.365936
-0.158276
0.0571049
0.276636
0.497019
0.714109
0.921743
1.11036
1.26609
1.37201
1.40506
1.30918
1.04516
-1.06296
-1.34379
-1.41139
-1.32814
-1.16973
-0.965804
-0.73463
-0.488888
-0.235515
0.0224293
0.283819
0.547942
0.8131
1.07505
1.325
1.54777
1.72228
1.81608
1.7502
1.46104
-1.65184
-1.94213
-1.94605
-1.76833
-1.51562
-1.2275
-0.924881
-0.619649
-0.315948
-0.013161
0.291579
0.601645
0.919393
1.24434
1.57051
1.88333
2.15858
2.35286
2.35472
2.05669
-2.50777
-2.76052
-2.63051
-2.29734
-1.90712
-1.50757
-1.11848
-0.747142
-0.391772
-0.0456716
0.299908
0.65416
1.02544
1.41958
1.83676
2.26716
2.68739
3.04503
3.18761
2.9309
-3.79989
-3.88697
-3.48929
-2.90663
-2.3219
-1.78092
-1.29322
-0.854347
-0.451783
-0.0697766
0.308256
0.698968
1.11871
1.58267
2.10223
2.67989
3.30275
3.91963
4.34018
4.25887
-5.83234
-5.43564
-4.53239
-3.56805
-2.72029
-2.00973
-1.41903
-0.920092
-0.483057
-0.0799874
0.315023
0.727083
1.18201
1.7075
2.33286
3.08516
3.97934
4.9892
5.9296
6.35111
-9.28479
-7.55092
-5.69684
-4.18851
-3.01864
-2.12958
-1.45171
-0.916909
-0.47085
-0.0715378
0.315992
0.724476
1.1889
1.75126
2.46589
3.40101
4.62559
6.19284
8.10489
9.89557
-15.9314
-10.3233
-6.56605
-4.38394
-2.94832
-1.96853
-1.28698
-0.785276
-0.385478
-0.0364902
0.299971
0.658489
1.07739
1.60785
2.32805
3.35758
4.85665
7.11559
10.9622
16.6722
-27.0777
-12.99
-6.27688
-3.58855
-2.19649
-1.36874
-0.84858
-0.489915
-0.212831
0.0269723
0.259117
0.509335
0.807203
1.19683
1.75783
2.63778
4.10087
6.88632
13.7134
27.9159
)
;

boundaryField
{
    movingWall
    {
        type            zeroGradient;
    }
    fixedWalls
    {
        type            zeroGradient;
    }
    frontAndBack
    {
        type            empty;
    }
}


// ************************************************************************* //
