/*--------------------------------*- C++ -*----------------------------------*\
  =========                 |
  \\      /  F ield         | OpenFOAM: The Open Source CFD Toolbox
   \\    /   O peration     | Website:  https://openfoam.org
    \\  /    A nd           | Version:  6
     \\/     M anipulation  |
\*---------------------------------------------------------------------------*/
FoamFile
{
    version     2.0;
    format      ascii;
    class       surfaceScalarField;
    location    "0.03";
    object      phi;
}
// * * * * * * * * * * * * * * * * * * * * * * * * * * * * * * * * * * * * * //

dimensions      [0 3 -1 0 0 0 0];

internalField   nonuniform List<scalar> 
760
(
1.47861e-08
-1.47884e-08
-2.07537e-08
3.55401e-08
-1.12607e-07
9.18526e-08
-2.44582e-07
1.31975e-07
-3.96589e-07
1.52006e-07
-5.49269e-07
1.52679e-07
-6.85873e-07
1.36604e-07
-7.93121e-07
1.07249e-07
-8.61474e-07
6.83528e-08
-8.85159e-07
2.36849e-08
-8.62161e-07
-2.29977e-08
-7.94245e-07
-6.79156e-08
-6.87025e-07
-1.0722e-07
-5.50041e-07
-1.36985e-07
-3.96735e-07
-1.53307e-07
-2.44129e-07
-1.52606e-07
-1.11853e-07
-1.32275e-07
-2.01226e-08
-9.17308e-08
1.50254e-08
-3.51482e-08
1.50251e-08
-3.28742e-08
1.80852e-08
-1.77422e-07
1.80088e-07
-4.3069e-07
3.45121e-07
-7.62563e-07
4.63849e-07
-1.13292e-06
5.22364e-07
-1.50049e-06
5.20253e-07
-1.82794e-06
4.64046e-07
-2.08464e-06
3.63954e-07
-2.24813e-06
2.31839e-07
-2.30464e-06
8.01987e-08
-2.2494e-06
-7.82345e-08
-2.08674e-06
-2.30583e-07
-1.8301e-06
-3.63853e-07
-1.50198e-06
-4.65113e-07
-1.13325e-06
-5.22035e-07
-7.61757e-07
-5.24095e-07
-4.29268e-07
-4.64765e-07
-1.76147e-07
-3.44851e-07
-3.23056e-08
-1.7899e-07
-1.72804e-08
-9.03362e-08
1.08422e-07
-3.53028e-07
4.42778e-07
-7.60492e-07
7.52585e-07
-1.26664e-06
9.70001e-07
-1.8164e-06
1.07212e-06
-2.354e-06
1.05785e-06
-2.82888e-06
9.38928e-07
-3.19936e-06
7.34437e-07
-3.43466e-06
4.67144e-07
-3.5159e-06
1.61433e-07
-3.4365e-06
-1.57632e-07
-3.20243e-06
-4.64654e-07
-2.83218e-06
-7.34104e-07
-2.35648e-06
-9.40811e-07
-1.81736e-06
-1.06116e-06
-1.266e-06
-1.07546e-06
-7.58835e-07
-9.71929e-07
-3.51366e-07
-7.5232e-07
-8.95243e-08
-4.40832e-07
-1.06805e-07
-1.42848e-07
2.51269e-07
-5.2121e-07
8.21139e-07
-1.07842e-06
1.30979e-06
-1.7482e-06
1.63978e-06
-2.46013e-06
1.78405e-06
-3.14629e-06
1.74401e-06
-3.74652e-06
1.53916e-06
-4.21182e-06
1.19974e-06
-4.5063e-06
7.61618e-07
-4.60797e-06
2.63108e-07
-4.5092e-06
-2.56404e-07
-4.21682e-06
-7.57035e-07
-3.75223e-06
-1.1987e-06
-3.15121e-06
-1.54184e-06
-2.46309e-06
-1.74927e-06
-1.74883e-06
-1.78972e-06
-1.07726e-06
-1.6435e-06
-5.19503e-07
-1.31007e-06
-1.4187e-07
-8.18463e-07
-2.48675e-07
-1.91203e-07
4.42473e-07
-6.82094e-07
1.31203e-06
-1.38651e-06
2.01421e-06
-2.21527e-06
2.46854e-06
-3.08123e-06
2.65001e-06
-3.90483e-06
2.5676e-06
-4.61812e-06
2.25245e-06
-5.16727e-06
1.74889e-06
-5.51347e-06
1.10782e-06
-5.63325e-06
3.82884e-07
-5.51837e-06
-3.71278e-07
-5.17593e-06
-1.09947e-06
-4.62856e-06
-1.74606e-06
-3.91473e-06
-2.25566e-06
-3.08865e-06
-2.57535e-06
-2.21919e-06
-2.65919e-06
-1.38721e-06
-2.47547e-06
-6.81029e-07
-2.01626e-06
-1.90236e-07
-1.30925e-06
-4.38911e-07
-2.38327e-07
6.808e-07
-8.4161e-07
1.91531e-06
-1.69354e-06
2.86614e-06
-2.67984e-06
3.45484e-06
-3.69533e-06
3.66551e-06
-4.64895e-06
3.52122e-06
-5.46645e-06
3.06995e-06
-6.09115e-06
2.3736e-06
-6.48344e-06
1.5001e-06
-6.6197e-06
5.19154e-07
-6.49162e-06
-4.99364e-07
-6.1059e-06
-1.48519e-06
-5.48486e-06
-2.3671e-06
-4.66753e-06
-3.07299e-06
-3.71083e-06
-3.53206e-06
-2.69013e-06
-3.67989e-06
-1.69828e-06
-3.46731e-06
-8.42353e-07
-2.87219e-06
-2.37708e-07
-1.9139e-06
-6.76619e-07
-2.87237e-07
9.68038e-07
-1.00669e-06
2.63476e-06
-2.0091e-06
3.86855e-06
-3.15254e-06
4.59828e-06
-4.31266e-06
4.82563e-06
-5.3876e-06
4.59616e-06
-6.29878e-06
3.98113e-06
-6.98928e-06
3.0641e-06
-7.421e-06
1.93182e-06
-7.57186e-06
6.70022e-07
-7.43397e-06
-6.37257e-07
-7.01299e-06
-1.90617e-06
-6.32914e-06
-3.05095e-06
-5.41947e-06
-3.98267e-06
-4.34091e-06
-4.61061e-06
-3.17333e-06
-4.84747e-06
-2.02096e-06
-4.61969e-06
-1.01096e-06
-3.88219e-06
-2.87505e-07
-2.63735e-06
-9.64124e-07
-3.40775e-07
1.30881e-06
-1.18387e-06
3.47786e-06
-2.34126e-06
5.02594e-06
-3.63967e-06
5.8967e-06
-4.93501e-06
6.12097e-06
-6.11644e-06
5.77759e-06
-7.10443e-06
4.96912e-06
-7.84552e-06
3.80519e-06
-8.30641e-06
2.39271e-06
-8.46873e-06
8.32335e-07
-8.3257e-06
-7.8028e-07
-7.88116e-06
-2.35071e-06
-7.15095e-06
-3.78116e-06
-6.16669e-06
-4.96693e-06
-4.98144e-06
-5.79586e-06
-3.676e-06
-6.15291e-06
-2.36412e-06
-5.93156e-06
-1.19397e-06
-5.05234e-06
-3.42686e-07
-3.48864e-06
-1.30681e-06
-4.01745e-07
1.71056e-06
-1.37911e-06
4.45523e-06
-2.6954e-06
6.34223e-06
-4.14116e-06
7.34245e-06
-5.55277e-06
7.53258e-06
-6.81436e-06
7.03919e-06
-7.85093e-06
6.00569e-06
-8.61805e-06
4.57231e-06
-9.09167e-06
2.86633e-06
-9.26e-06
1.00066e-06
-9.11844e-06
-9.21835e-07
-8.66801e-06
-2.80115e-06
-7.91723e-06
-4.53194e-06
-6.88772e-06
-5.99644e-06
-5.62281e-06
-7.06077e-06
-4.19844e-06
-7.57728e-06
-2.73378e-06
-7.39623e-06
-1.39785e-06
-6.38826e-06
-4.06287e-07
-4.4802e-06
-1.7131e-06
-4.73483e-07
2.18404e-06
-1.59828e-06
5.58002e-06
-3.07379e-06
7.81774e-06
-4.64835e-06
8.91701e-06
-6.14125e-06
9.02548e-06
-7.43869e-06
8.33664e-06
-8.47877e-06
7.04576e-06
-9.23382e-06
5.32736e-06
-9.69494e-06
3.32745e-06
-9.86053e-06
1.16625e-06
-9.72947e-06
-1.0529e-06
-9.29889e-06
-3.23173e-06
-8.56658e-06
-5.26425e-06
-7.53813e-06
-7.02489e-06
-6.2391e-06
-8.3598e-06
-4.73148e-06
-9.0849e-06
-3.13226e-06
-8.99544e-06
-1.62884e-06
-7.89169e-06
-4.81863e-07
-5.62718e-06
-2.19496e-06
-5.60877e-07
2.74492e-06
-1.84823e-06
6.86737e-06
-3.47478e-06
9.44429e-06
-5.14078e-06
1.0583e-05
-6.65512e-06
1.05398e-05
-7.91833e-06
9.59984e-06
-8.89401e-06
8.02145e-06
-9.58139e-06
6.01474e-06
-9.99366e-06
3.73972e-06
-1.01435e-05
1.31605e-06
-1.00346e-05
-1.16175e-06
-9.65944e-06
-3.6069e-06
-9.00131e-06
-5.92238e-06
-8.04295e-06
-7.98324e-06
-6.78173e-06
-9.62102e-06
-5.25254e-06
-1.06141e-05
-3.55705e-06
-1.06909e-05
-1.89372e-06
-9.55501e-06
-5.74466e-07
-6.94644e-06
-2.76943e-06
-6.72069e-07
3.41699e-06
-2.13783e-06
8.33312e-06
-3.89043e-06
1.11969e-05
-5.57964e-06
1.22722e-05
-7.01917e-06
1.19793e-05
-8.14349e-06
1.07242e-05
-8.95863e-06
8.83658e-06
-9.50236e-06
6.55847e-06
-9.81701e-06
4.05437e-06
-9.93306e-06
1.4321e-06
-9.86065e-06
-1.23416e-06
-9.58676e-06
-3.88078e-06
-9.07742e-06
-6.43171e-06
-8.28589e-06
-8.77477e-06
-7.16948e-06
-1.07374e-05
-5.7183e-06
-1.20653e-05
-3.99773e-06
-1.24115e-05
-2.20065e-06
-1.13521e-05
-6.92291e-07
-8.45479e-06
-3.46172e-06
-8.21206e-07
4.23819e-06
-2.47802e-06
9.98994e-06
-4.2996e-06
1.30185e-05
-5.89473e-06
1.38674e-05
-7.11244e-06
1.31971e-05
-7.95062e-06
1.15623e-05
-8.47808e-06
9.36404e-06
-8.78227e-06
6.86265e-06
-8.93935e-06
4.21146e-06
-8.99923e-06
1.49198e-06
-8.97898e-06
-1.25441e-06
-8.86067e-06
-3.99909e-06
-8.5924e-06
-6.69998e-06
-8.09401e-06
-9.27316e-06
-7.27201e-06
-1.15594e-05
-6.05078e-06
-1.32865e-05
-4.42816e-06
-1.40341e-05
-2.55857e-06
-1.32217e-05
-8.49304e-07
-1.01641e-05
-4.31102e-06
-1.03227e-06
5.27046e-06
-2.87727e-06
1.18349e-05
-4.64998e-06
1.47912e-05
-5.95807e-06
1.51754e-05
-6.74121e-06
1.39802e-05
-7.10032e-06
1.19215e-05
-7.18663e-06
9.45035e-06
-7.14272e-06
6.81875e-06
-7.07711e-06
4.14585e-06
-7.05627e-06
1.47114e-06
-7.1032e-06
-1.20749e-06
-7.19699e-06
-3.9053e-06
-7.27179e-06
-6.62519e-06
-7.21675e-06
-9.32819e-06
-6.88319e-06
-1.1893e-05
-6.11035e-06
-1.40593e-05
-4.78754e-06
-1.53569e-05
-2.9719e-06
-1.50373e-05
-1.06883e-06
-1.20671e-05
-5.37985e-06
-1.34109e-06
6.61155e-06
-3.32116e-06
1.3815e-05
-4.81426e-06
1.62843e-05
-5.53249e-06
1.58937e-05
-5.59477e-06
1.40425e-05
-5.24743e-06
1.15741e-05
-4.73244e-06
8.93536e-06
-4.23869e-06
6.325e-06
-3.89394e-06
3.8011e-06
-3.77116e-06
1.34836e-06
-3.89568e-06
-1.08298e-06
-4.24756e-06
-3.55342e-06
-4.75777e-06
-6.11498e-06
-5.29936e-06
-8.7866e-06
-5.67928e-06
-1.15131e-05
-5.64522e-06
-1.40934e-05
-4.93568e-06
-1.60665e-05
-3.41857e-06
-1.65544e-05
-1.38489e-06
-1.41008e-05
-6.76473e-06
-1.77977e-06
8.39132e-06
-3.70259e-06
1.57378e-05
-4.48919e-06
1.70709e-05
-4.17732e-06
1.55818e-05
-3.17913e-06
1.30443e-05
-1.90676e-06
1.03017e-05
-6.69587e-07
7.69819e-06
3.31524e-07
5.32388e-06
9.7901e-07
3.15361e-06
1.21214e-06
1.11523e-06
1.00994e-06
-8.80774e-07
3.85615e-07
-2.92909e-06
-6.07099e-07
-5.12226e-06
-1.8555e-06
-7.5382e-06
-3.15914e-06
-1.02094e-05
-4.20138e-06
-1.30512e-05
-4.55303e-06
-1.57148e-05
-3.77845e-06
-1.7329e-05
-1.82493e-06
-1.60543e-05
-8.58966e-06
-2.29684e-06
1.06882e-05
-3.6271e-06
1.70681e-05
-2.98302e-06
1.64268e-05
-1.09131e-06
1.36901e-05
1.2674e-06
1.06856e-05
3.57232e-06
7.99683e-06
5.52903e-06
5.74148e-06
6.99222e-06
3.8607e-06
7.89895e-06
2.24688e-06
8.2251e-06
7.8908e-07
7.96242e-06
-6.18096e-07
7.11144e-06
-2.07811e-06
5.68819e-06
-3.69901e-06
3.74734e-06
-5.59735e-06
1.42761e-06
-7.8897e-06
-9.77334e-07
-1.06462e-05
-2.93541e-06
-1.37568e-05
-3.63905e-06
-1.66254e-05
-2.32681e-06
-1.73666e-05
-1.09165e-05
-2.50256e-06
1.31907e-05
-1.93629e-06
1.65018e-05
1.19285e-06
1.32977e-05
5.11661e-06
9.76634e-06
8.85181e-06
6.95037e-06
1.19925e-05
4.85618e-06
1.44159e-05
3.31808e-06
1.61198e-05
2.15678e-06
1.71381e-05
1.22852e-06
1.75012e-05
4.25977e-07
1.72193e-05
-3.36152e-07
1.62776e-05
-1.13643e-06
1.464e-05
-2.06141e-06
1.22642e-05
-3.22151e-06
9.14129e-06
-4.76682e-06
5.38313e-06
-6.88806e-06
1.39263e-06
-9.76627e-06
-1.83188e-06
-1.34008e-05
-2.48288e-06
-1.67156e-05
-1.33994e-05
-5.77749e-07
1.37685e-05
4.63777e-06
1.12863e-05
1.1074e-05
6.86141e-06
1.66508e-05
4.18952e-06
2.09796e-05
2.62159e-06
2.41674e-05
1.66841e-06
2.64181e-05
1.06739e-06
2.79109e-05
6.64013e-07
2.87717e-05
3.67658e-07
2.90734e-05
1.24283e-07
2.88397e-05
-1.02486e-07
2.80472e-05
-3.43879e-07
2.6622e-05
-6.36273e-07
2.44345e-05
-1.03395e-06
2.12966e-05
-1.62892e-06
1.69893e-05
-2.58077e-06
1.13877e-05
-4.16464e-06
4.87105e-06
-6.88422e-06
-4.6916e-07
-1.13754e-05
-1.38685e-05
1.37685e-05
2.50548e-05
3.19162e-05
3.61057e-05
3.87273e-05
4.03957e-05
4.14631e-05
4.21271e-05
4.24948e-05
4.2619e-05
4.25166e-05
4.21727e-05
4.15364e-05
4.05025e-05
3.88735e-05
3.62928e-05
3.21281e-05
2.52439e-05
1.38685e-05
)
;

boundaryField
{
    movingWall
    {
        type            calculated;
        value           uniform 0;
    }
    fixedWalls
    {
        type            calculated;
        value           uniform 0;
    }
    frontAndBack
    {
        type            empty;
        value           nonuniform 0();
    }
}


// ************************************************************************* //
