/*--------------------------------*- C++ -*----------------------------------*\
  =========                 |
  \\      /  F ield         | OpenFOAM: The Open Source CFD Toolbox
   \\    /   O peration     | Website:  https://openfoam.org
    \\  /    A nd           | Version:  6
     \\/     M anipulation  |
\*---------------------------------------------------------------------------*/
FoamFile
{
    version     2.0;
    format      ascii;
    class       volVectorField;
    location    "0.03";
    object      U;
}
// * * * * * * * * * * * * * * * * * * * * * * * * * * * * * * * * * * * * * //

dimensions      [0 1 -1 0 0 0 0];

internalField   nonuniform List<vector> 
400
(
(0.000257154 -0.000253304 0)
(0.000159936 0.000105996 0)
(-0.00114365 0.000565218 0)
(-0.00345243 0.000894261 0)
(-0.00637207 0.00106081 0)
(-0.00949458 0.00107679 0)
(-0.0124518 0.000966922 0)
(-0.01494 0.000760001 0)
(-0.0167296 0.000484724 0)
(-0.0176671 0.000168548 0)
(-0.0176744 -0.000161971 0)
(-0.0167489 -0.000480318 0)
(-0.0149643 -0.000759141 0)
(-0.0124723 -0.000969648 0)
(-0.00950417 -0.0010817 0)
(-0.00636842 -0.00106554 0)
(-0.00343909 -0.000896464 0)
(-0.00112863 -0.000563853 0)
(0.000169105 -0.000102445 0)
(0.000259565 0.000255336 0)
(-6.69287e-05 -0.000189399 0)
(-0.00156898 0.00161502 0)
(-0.0056238 0.00361139 0)
(-0.0116605 0.0050631 0)
(-0.0188782 0.00579441 0)
(-0.0264432 0.00581125 0)
(-0.0335545 0.00519963 0)
(-0.039522 0.00408409 0)
(-0.0438098 0.00260387 0)
(-0.0460537 0.000902246 0)
(-0.0460675 -0.000876527 0)
(-0.0438462 -0.00258702 0)
(-0.039568 -0.00408171 0)
(-0.0335938 -0.00521184 0)
(-0.0264623 -0.00583232 0)
(-0.0188723 -0.00581472 0)
(-0.0116354 -0.00507316 0)
(-0.00559401 -0.00360681 0)
(-0.00154929 -0.00160073 0)
(-6.11185e-05 0.000199099 0)
(-0.000512277 0.00103724 0)
(-0.0036513 0.00566483 0)
(-0.010499 0.0102079 0)
(-0.0199242 0.0134655 0)
(-0.0307614 0.0150523 0)
(-0.0418941 0.0149428 0)
(-0.0522444 0.013309 0)
(-0.0608748 0.0104314 0)
(-0.0670535 0.00664274 0)
(-0.0702806 0.00229731 0)
(-0.0703003 -0.00224169 0)
(-0.0671062 -0.00660645 0)
(-0.0609433 -0.0104268 0)
(-0.0523063 -0.0133365 0)
(-0.0419304 -0.0149903 0)
(-0.0307635 -0.0150989 0)
(-0.0198974 -0.0134904 0)
(-0.0104617 -0.0102005 0)
(-0.00362427 -0.00563408 0)
(-0.000503679 -0.0010135 0)
(-0.000906618 0.00338071 0)
(-0.00562116 0.0121048 0)
(-0.0152143 0.0199082 0)
(-0.0278825 0.0253109 0)
(-0.0420509 0.0277854 0)
(-0.0563465 0.027314 0)
(-0.0694799 0.0241921 0)
(-0.0803446 0.0189002 0)
(-0.0880845 0.0120137 0)
(-0.0921185 0.00415101 0)
(-0.0921494 -0.00405103 0)
(-0.0881686 -0.0119468 0)
(-0.0804585 -0.018888 0)
(-0.0695925 -0.0242365 0)
(-0.0564289 -0.0273957 0)
(-0.0420865 -0.0278697 0)
(-0.027873 -0.0253612 0)
(-0.0151799 -0.0199035 0)
(-0.00559027 -0.0120562 0)
(-0.000895566 -0.00333834 0)
(-0.0012548 0.00672813 0)
(-0.00747341 0.0208065 0)
(-0.0197675 0.0325357 0)
(-0.0356157 0.0403177 0)
(-0.0529876 0.0436012 0)
(-0.0702456 0.0424617 0)
(-0.0859161 0.0373828 0)
(-0.0987698 0.0290945 0)
(-0.107877 0.0184541 0)
(-0.112614 0.00637584 0)
(-0.112666 -0.00620285 0)
(-0.108019 -0.018333 0)
(-0.0989708 -0.0290604 0)
(-0.0861297 -0.0374417 0)
(-0.0704261 -0.042587 0)
(-0.053103 -0.0437412 0)
(-0.0356581 -0.0404141 0)
(-0.0197564 -0.0325499 0)
(-0.0074461 -0.0207465 0)
(-0.00124234 -0.00666509 0)
(-0.00158689 0.0110212 0)
(-0.00929599 0.0317399 0)
(-0.0243023 0.0480913 0)
(-0.0433279 0.0584713 0)
(-0.063846 0.0624353 0)
(-0.0839421 0.0602684 0)
(-0.101977 0.0527332 0)
(-0.116637 0.0408729 0)
(-0.126962 0.0258663 0)
(-0.132326 0.00894396 0)
(-0.132411 -0.0086467 0)
(-0.127202 -0.0256478 0)
(-0.116984 -0.0407887 0)
(-0.102363 -0.052798 0)
(-0.0842959 -0.0604492 0)
(-0.0641101 -0.0626594 0)
(-0.0434759 -0.0586502 0)
(-0.0243476 -0.0481576 0)
(-0.00928574 -0.0316878 0)
(-0.0015754 -0.0109404 0)
(-0.00193306 0.0162648 0)
(-0.0111903 0.0449442 0)
(-0.0289896 0.0666197 0)
(-0.0512283 0.079776 0)
(-0.07484 0.0842256 0)
(-0.0976306 0.0806093 0)
(-0.117825 0.0700845 0)
(-0.134076 0.0540838 0)
(-0.145445 0.034146 0)
(-0.151343 0.0118271 0)
(-0.151478 -0.0113258 0)
(-0.145826 -0.0337615 0)
(-0.134638 -0.0539019 0)
(-0.118472 -0.0701361 0)
(-0.0982534 -0.0808579 0)
(-0.075344 -0.0845738 0)
(-0.051556 -0.0800942 0)
(-0.0291394 -0.0667947 0)
(-0.0112179 -0.0449395 0)
(-0.00192661 -0.0161778 0)
(-0.0023217 0.0225235 0)
(-0.0132549 0.0605339 0)
(-0.0339881 0.0882021 0)
(-0.0594756 0.10422 0)
(-0.0860614 0.108848 0)
(-0.11129 0.103271 0)
(-0.133309 0.0891834 0)
(-0.15081 0.0684945 0)
(-0.162955 0.0431356 0)
(-0.169247 0.0149791 0)
(-0.169446 -0.0141623 0)
(-0.163523 -0.0424873 0)
(-0.151662 -0.0681438 0)
(-0.134311 -0.0891878 0)
(-0.11229 -0.103596 0)
(-0.0869133 -0.109371 0)
(-0.0600753 -0.104757 0)
(-0.0343052 -0.0885729 0)
(-0.0133491 -0.0606435 0)
(-0.00232641 -0.0224548 0)
(-0.00278253 0.0299176 0)
(-0.0155877 0.0786939 0)
(-0.0394324 0.112935 0)
(-0.0681453 0.131726 0)
(-0.097428 0.136046 0)
(-0.124616 0.127869 0)
(-0.147885 0.109604 0)
(-0.166086 0.0837264 0)
(-0.178576 0.0525802 0)
(-0.185033 0.0183188 0)
(-0.185309 -0.0170467 0)
(-0.179368 -0.0515423 0)
(-0.167285 -0.0831099 0)
(-0.149328 -0.109507 0)
(-0.126098 -0.128271 0)
(-0.0987401 -0.136799 0)
(-0.0691205 -0.132584 0)
(-0.0399923 -0.113623 0)
(-0.0157853 -0.0790189 0)
(-0.00280684 -0.0299092 0)
(-0.00335433 0.0386271 0)
(-0.0183013 0.0996669 0)
(-0.0454375 0.140881 0)
(-0.0772048 0.162064 0)
(-0.108623 0.165317 0)
(-0.136937 0.153732 0)
(-0.160522 0.130641 0)
(-0.178555 0.0991731 0)
(-0.190736 0.0620755 0)
(-0.197006 0.0217094 0)
(-0.19736 -0.0198248 0)
(-0.191758 -0.0605026 0)
(-0.180126 -0.0981709 0)
(-0.16245 -0.130365 0)
(-0.138973 -0.154192 0)
(-0.11049 -0.166351 0)
(-0.0786555 -0.163359 0)
(-0.0463215 -0.142039 0)
(-0.0186463 -0.100348 0)
(-0.00340929 -0.0387433 0)
(-0.00409908 0.0489112 0)
(-0.0215518 0.123743 0)
(-0.0521067 0.171991 0)
(-0.0864729 0.194722 0)
(-0.119005 0.19576 0)
(-0.147082 0.179757 0)
(-0.169545 0.151193 0)
(-0.186135 0.113915 0)
(-0.19706 0.0710151 0)
(-0.202636 0.0249368 0)
(-0.203053 -0.0222899 0)
(-0.198275 -0.0687614 0)
(-0.188031 -0.112395 0)
(-0.171925 -0.150635 0)
(-0.149669 -0.180225 0)
(-0.121465 -0.197105 0)
(-0.0884698 -0.196568 0)
(-0.0533899 -0.173798 0)
(-0.0220923 -0.12496 0)
(-0.00419851 -0.0492426 0)
(-0.00512712 0.0611554 0)
(-0.0255809 0.151249 0)
(-0.059526 0.205987 0)
(-0.095528 0.228712 0)
(-0.127438 0.225876 0)
(-0.153176 0.204237 0)
(-0.172441 0.169642 0)
(-0.185822 0.126645 0)
(-0.19422 0.0785497 0)
(-0.198423 0.027692 0)
(-0.198865 -0.02418 0)
(-0.195518 -0.0755027 0)
(-0.187888 -0.124482 0)
(-0.175109 -0.16868 0)
(-0.156182 -0.204623 0)
(-0.130421 -0.22751 0)
(-0.0980708 -0.231191 0)
(-0.0612543 -0.20862 0)
(-0.0263633 -0.153212 0)
(-0.00528756 -0.0618217 0)
(-0.00664143 0.075968 0)
(-0.0307701 0.182511 0)
(-0.0677009 0.242144 0)
(-0.103495 0.262281 0)
(-0.131986 0.253303 0)
(-0.152321 0.224683 0)
(-0.165572 0.183754 0)
(-0.173479 0.135629 0)
(-0.177779 0.0835769 0)
(-0.179783 0.029566 0)
(-0.180179 -0.0251876 0)
(-0.178962 -0.0797059 0)
(-0.17542 -0.132745 0)
(-0.168184 -0.182263 0)
(-0.155418 -0.224844 0)
(-0.135242 -0.255121 0)
(-0.106451 -0.265388 0)
(-0.0698531 -0.245735 0)
(-0.0318274 -0.185439 0)
(-0.00688154 -0.0771175 0)
(-0.00900721 0.0943438 0)
(-0.0376754 0.217731 0)
(-0.0763246 0.278882 0)
(-0.108564 0.292461 0)
(-0.129347 0.274498 0)
(-0.140084 0.237679 0)
(-0.143805 0.19067 0)
(-0.143617 0.138761 0)
(-0.142098 0.0848001 0)
(-0.141016 0.0300716 0)
(-0.14127 -0.024989 0)
(-0.142883 -0.0802165 0)
(-0.144992 -0.135176 0)
(-0.145817 -0.188558 0)
(-0.142701 -0.237428 0)
(-0.132374 -0.276281 0)
(-0.111588 -0.296045 0)
(-0.0787522 -0.283441 0)
(-0.0390039 -0.2218 0)
(-0.00934521 -0.0961465 0)
(-0.0128148 0.117884 0)
(-0.0468887 0.256584 0)
(-0.084087 0.313021 0)
(-0.106961 0.314468 0)
(-0.113841 0.284477 0)
(-0.109744 0.238918 0)
(-0.100078 0.187113 0)
(-0.0892388 0.133811 0)
(-0.0803787 0.0809171 0)
(-0.0754701 0.0287184 0)
(-0.0754722 -0.0233049 0)
(-0.080442 -0.0759275 0)
(-0.0895208 -0.129701 0)
(-0.100792 -0.184381 0)
(-0.11108 -0.238067 0)
(-0.115848 -0.285891 0)
(-0.109415 -0.31817 0)
(-0.0864241 -0.318333 0)
(-0.0483998 -0.261837 0)
(-0.0132584 -0.120507 0)
(-0.0187199 0.149113 0)
(-0.0581703 0.297206 0)
(-0.0868103 0.338455 0)
(-0.090852 0.320986 0)
(-0.0757636 0.276809 0)
(-0.0513021 0.223653 0)
(-0.0250145 0.169989 0)
(-0.00189942 0.118968 0)
(0.0149964 0.0709922 0)
(0.0239913 0.0251588 0)
(0.024321 -0.0199975 0)
(0.0159063 -0.0661156 0)
(-0.000639831 -0.114719 0)
(-0.0237629 -0.166811 0)
(-0.0504829 -0.222101 0)
(-0.0757488 -0.277467 0)
(-0.0917733 -0.324225 0)
(-0.0883652 -0.343974 0)
(-0.0595902 -0.303416 0)
(-0.0192323 -0.15267 0)
(-0.0262693 0.192204 0)
(-0.0674243 0.333811 0)
(-0.0730197 0.343724 0)
(-0.0444502 0.301317 0)
(0.00101226 0.244091 0)
(0.0495032 0.187746 0)
(0.0930966 0.137479 0)
(0.127754 0.0937012 0)
(0.151644 0.0549987 0)
(0.164044 0.0194006 0)
(0.164698 -0.0151896 0)
(0.15353 -0.050902 0)
(0.130639 -0.0898964 0)
(0.0965828 -0.134271 0)
(0.0530286 -0.185623 0)
(0.00392008 -0.243726 0)
(-0.0427407 -0.303415 0)
(-0.0727472 -0.348551 0)
(-0.0681337 -0.34031 0)
(-0.026675 -0.19665 0)
(-0.0286685 0.250105 0)
(-0.0579634 0.349855 0)
(-0.0146348 0.309009 0)
(0.0622728 0.242286 0)
(0.141791 0.180534 0)
(0.211556 0.130336 0)
(0.267433 0.0910945 0)
(0.308636 0.0601067 0)
(0.335718 0.0345672 0)
(0.349443 0.0120799 0)
(0.350265 -0.00941775 0)
(0.338142 -0.0318823 0)
(0.312525 -0.0574183 0)
(0.27251 -0.0885179 0)
(0.217347 -0.12816 0)
(0.147587 -0.179312 0)
(0.0671845 -0.242847 0)
(-0.0115016 -0.312141 0)
(-0.0569179 -0.355355 0)
(-0.028457 -0.254841 0)
(0.0136402 0.288402 0)
(0.0297039 0.302273 0)
(0.152935 0.213907 0)
(0.281395 0.142474 0)
(0.381611 0.0942224 0)
(0.455932 0.0622671 0)
(0.509531 0.0408343 0)
(0.546381 0.025797 0)
(0.569521 0.0144266 0)
(0.580949 0.00494023 0)
(0.581627 -0.00394661 0)
(0.571563 -0.0133689 0)
(0.549791 -0.0246187 0)
(0.514276 -0.0395047 0)
(0.461858 -0.0608302 0)
(0.388337 -0.0929074 0)
(0.28821 -0.141849 0)
(0.158675 -0.214819 0)
(0.0332933 -0.305062 0)
(0.0153875 -0.291423 0)
(0.304632 0.147055 0)
(0.405637 0.127652 0)
(0.568646 0.0748542 0)
(0.685268 0.0419885 0)
(0.752861 0.023989 0)
(0.794092 0.0140445 0)
(0.820519 0.00837879 0)
(0.837338 0.00494342 0)
(0.847376 0.00263678 0)
(0.852167 0.000859996 0)
(0.85238 -0.00075339 0)
(0.848036 -0.00250212 0)
(0.838504 -0.00474702 0)
(0.822289 -0.00807672 0)
(0.79658 -0.0135858 0)
(0.75616 -0.0233474 0)
(0.68939 -0.0412423 0)
(0.573078 -0.0742815 0)
(0.408904 -0.127713 0)
(0.306178 -0.147622 0)
)
;

boundaryField
{
    movingWall
    {
        type            fixedValue;
        value           uniform (1 0 0);
    }
    fixedWalls
    {
        type            noSlip;
    }
    frontAndBack
    {
        type            empty;
    }
}


// ************************************************************************* //
