/*--------------------------------*- C++ -*----------------------------------*\
  =========                 |
  \\      /  F ield         | OpenFOAM: The Open Source CFD Toolbox
   \\    /   O peration     | Website:  https://openfoam.org
    \\  /    A nd           | Version:  6
     \\/     M anipulation  |
\*---------------------------------------------------------------------------*/
FoamFile
{
    version     2.0;
    format      ascii;
    class       volScalarField;
    location    "0.045";
    object      p;
}
// * * * * * * * * * * * * * * * * * * * * * * * * * * * * * * * * * * * * * //

dimensions      [0 2 -2 0 0 0 0];

internalField   nonuniform List<scalar> 
400
(
2.69256e-09
-0.000233602
-0.00021373
0.000131675
0.000776094
0.00169202
0.00284918
0.00421131
0.00573619
0.0073758
0.0090766
0.0107803
0.0124253
0.0139478
0.0152847
0.0163756
0.0171667
0.0176118
0.0176756
0.0174401
0.000231968
-1.12725e-05
3.51091e-05
0.000386951
0.0010125
0.00189514
0.00301105
0.00432703
0.00580287
0.00739211
0.00904258
0.0106973
0.0122956
0.0137754
0.0150746
0.0161357
0.0169106
0.0173638
0.0174541
0.0172069
0.000217329
-8.24789e-05
-4.58822e-05
0.000307997
0.000933319
0.00181532
0.00293227
0.00425211
0.00573544
0.00733628
0.00900251
0.0106768
0.0122977
0.0138015
0.0151247
0.0162074
0.0170005
0.0174669
0.0175496
0.0172406
-0.000129275
-0.000481851
-0.000460612
-9.90039e-05
0.000546111
0.00145868
0.00261681
0.00398817
0.00553299
0.0072046
0.00894969
0.010709
0.0124183
0.0140103
0.0154162
0.0165702
0.0174172
0.0179136
0.0179876
0.01762
-0.000812154
-0.00121067
-0.00119923
-0.000818228
-0.000132994
0.000838788
0.00207432
0.00354021
0.00519545
0.00699183
0.00887386
0.0107792
0.0126392
0.0143805
0.0159266
0.017202
0.0181416
0.0186921
0.0187682
0.018347
-0.0018505
-0.00229907
-0.00229295
-0.00187881
-0.00113115
-6.97657e-05
0.00128108
0.00288622
0.00470283
0.00668048
0.00876087
0.0108776
0.0129564
0.0149157
0.0166679
0.018124
0.0192037
0.0198394
0.0199287
0.019446
-0.00327918
-0.00378888
-0.00378488
-0.00332238
-0.00248794
-0.00130437
0.000201935
0.00199348
0.00402508
0.00624387
0.00858845
0.0109881
0.0133618
0.015618
0.0176552
0.0193652
0.020646
0.0214079
0.0215233
0.0209623
-0.00514804
-0.00573456
-0.00572979
-0.00520172
-0.00425355
-0.00291255
-0.00120804
0.000819505
0.00312236
0.00564527
0.00832417
0.0110844
0.0138384
0.0164838
0.0189014
0.0209583
0.0225211
0.0234661
0.0236259
0.0229617
-0.0075249
-0.00820865
-0.0081997
-0.00758541
-0.00649255
-0.00495496
-0.00300606
-0.000689945
0.001943
0.00483579
0.00792291
0.0111275
0.0143572
0.0174991
0.0204147
0.022939
0.0248949
0.0261055
0.0263389
0.0255364
-0.0105001
-0.0113075
-0.0112887
-0.0105614
-0.00928625
-0.007507
-0.00526265
-0.00260186
0.000422362
0.00375238
0.00732361
0.0110605
0.0148698
0.018632
0.0221896
0.0253399
0.0278456
0.0294477
0.0298056
0.0288147
-0.0141942
-0.0151596
-0.0151196
-0.0142411
-0.0127352
-0.01066
-0.00806198
-0.00499587
-0.0015174
0.00231667
0.00644619
0.0108025
0.0152996
0.0198197
0.0241929
0.0281775
0.0314584
0.0336514
0.0342295
0.0329794
-0.0187732
-0.0199401
-0.019854
-0.0187657
-0.0169623
-0.0145218
-0.011501
-0.00796246
-0.00396536
0.000435983
0.00519024
0.0102439
0.0155301
0.0209495
0.0263379
0.0314251
0.035807
0.038917
0.0399057
0.038307
-0.0244762
-0.0258958
-0.0257077
-0.0243138
-0.0221158
-0.0192168
-0.0156862
-0.0115978
-0.00701574
-0.00199112
0.00343814
0.00924324
0.0153937
0.0218349
0.0284441
0.0349609
0.0409084
0.0454774
0.0472744
0.0452658
-0.0316756
-0.0333896
-0.0329736
-0.0311112
-0.0283717
-0.0248821
-0.0207258
-0.0159923
-0.0107544
-0.00506045
0.00106802
0.00763598
0.014668
0.0221892
0.0301788
0.0384763
0.0466285
0.0535767
0.0570475
0.0548054
-0.0410064
-0.0429765
-0.042046
-0.039434
-0.0359284
-0.0316553
-0.0267107
-0.0212069
-0.0152307
-0.00883109
-0.00201309
0.00526573
0.0130974
0.0216198
0.0309906
0.0413147
0.0524421
0.0632723
0.0702688
0.0689094
-0.0536642
-0.0555366
-0.0534352
-0.0495989
-0.0449865
-0.0396413
-0.0336694
-0.0272179
-0.0203953
-0.0132547
-0.00578829
0.00207814
0.0104975
0.0197219
0.0301348
0.0422997
0.0568734
0.0734441
0.0874187
0.0907924
-0.0721716
-0.0725011
-0.0677736
-0.0619217
-0.0556446
-0.048757
-0.0413889
-0.0337353
-0.025923
-0.0180001
-0.00994182
-0.00165086
0.00705833
0.0165041
0.0272473
0.0403662
0.0578201
0.0814138
0.107922
0.12562
-0.102745
-0.0957002
-0.0850937
-0.0757998
-0.0669037
-0.0578234
-0.0486775
-0.0396412
-0.0307942
-0.0221311
-0.0135824
-0.00501917
0.00376671
0.0131332
0.0237846
0.0373047
0.0572796
0.0898598
0.138998
0.191284
-0.162788
-0.123562
-0.0985563
-0.0844193
-0.073051
-0.0622644
-0.0519935
-0.0422476
-0.0329516
-0.024017
-0.0153331
-0.00674326
0.00200011
0.0113666
0.0224178
0.0377498
0.0635645
0.112752
0.204267
0.332897
-0.29071
-0.143257
-0.0886174
-0.0745489
-0.0657605
-0.0566686
-0.0478222
-0.0393039
-0.0309559
-0.0227216
-0.0145683
-0.00639971
0.00200954
0.0111871
0.0225069
0.0397175
0.0727513
0.144656
0.294183
0.548224
)
;

boundaryField
{
    movingWall
    {
        type            zeroGradient;
    }
    fixedWalls
    {
        type            zeroGradient;
    }
    frontAndBack
    {
        type            empty;
    }
}


// ************************************************************************* //
