/*--------------------------------*- C++ -*----------------------------------*\
  =========                 |
  \\      /  F ield         | OpenFOAM: The Open Source CFD Toolbox
   \\    /   O peration     | Website:  https://openfoam.org
    \\  /    A nd           | Version:  6
     \\/     M anipulation  |
\*---------------------------------------------------------------------------*/
FoamFile
{
    version     2.0;
    format      ascii;
    class       volVectorField;
    location    "0.045";
    object      U;
}
// * * * * * * * * * * * * * * * * * * * * * * * * * * * * * * * * * * * * * //

dimensions      [0 1 -1 0 0 0 0];

internalField   nonuniform List<vector> 
400
(
(-0.0001484 0.000145958 0)
(-0.000920531 0.000504434 0)
(-0.00232872 0.000637384 0)
(-0.00387726 0.000637112 0)
(-0.00533839 0.000586019 0)
(-0.00664264 0.000512871 0)
(-0.00775237 0.000425235 0)
(-0.00863679 0.000325712 0)
(-0.00927028 0.000216159 0)
(-0.00963226 9.86016e-05 0)
(-0.00970748 -2.45864e-05 0)
(-0.00948684 -0.000150613 0)
(-0.00896832 -0.000276207 0)
(-0.00815812 -0.000397571 0)
(-0.0070721 -0.000510236 0)
(-0.00573779 -0.000608181 0)
(-0.00419782 -0.000679559 0)
(-0.00253739 -0.000690282 0)
(-0.00101457 -0.000551828 0)
(-0.000168536 -0.000166886 0)
(-0.000515653 0.000918462 0)
(-0.00231879 0.00227789 0)
(-0.00513703 0.00276992 0)
(-0.00815374 0.00276536 0)
(-0.0109974 0.0025469 0)
(-0.0135371 0.00222525 0)
(-0.0156917 0.00183642 0)
(-0.0173979 0.00139519 0)
(-0.0186068 0.000911809 0)
(-0.0192811 0.000396272 0)
(-0.019395 -0.000140545 0)
(-0.0189348 -0.000686386 0)
(-0.0179005 -0.00122718 0)
(-0.0163075 -0.00174658 0)
(-0.0141902 -0.00222494 0)
(-0.0116067 -0.00263499 0)
(-0.00864549 -0.00292491 0)
(-0.00546123 -0.00296476 0)
(-0.00246981 -0.0024514 0)
(-0.000550264 -0.00099864 0)
(-0.000690122 0.00238017 0)
(-0.00300296 0.00515413 0)
(-0.00651121 0.00611753 0)
(-0.0102124 0.00608869 0)
(-0.0136825 0.00560559 0)
(-0.0167753 0.00489117 0)
(-0.0193945 0.00402591 0)
(-0.0214644 0.00304562 0)
(-0.0229275 0.00197512 0)
(-0.0237406 0.000837555 0)
(-0.023874 -0.000342928 0)
(-0.0233118 -0.00153973 0)
(-0.0220537 -0.00272255 0)
(-0.0201176 -0.00385605 0)
(-0.0175431 -0.0048971 0)
(-0.0143992 -0.00578523 0)
(-0.0107899 -0.00640847 0)
(-0.00688957 -0.00650576 0)
(-0.00317643 -0.0054995 0)
(-0.000728874 -0.00254261 0)
(-0.000771694 0.00413184 0)
(-0.00336948 0.00852722 0)
(-0.00730163 0.00999217 0)
(-0.0114241 0.00990974 0)
(-0.0152722 0.009111 0)
(-0.0186939 0.00794099 0)
(-0.0215881 0.00652815 0)
(-0.0238759 0.00493157 0)
(-0.025497 0.00319229 0)
(-0.0264061 0.00134763 0)
(-0.026571 -0.000564294 0)
(-0.0259727 -0.00250203 0)
(-0.0246071 -0.00441826 0)
(-0.0224879 -0.00625706 0)
(-0.0196522 -0.0079491 0)
(-0.0161693 -0.00939639 0)
(-0.0121479 -0.0104198 0)
(-0.00777442 -0.0106124 0)
(-0.00358344 -0.00907856 0)
(-0.000818267 -0.00438908 0)
(-0.000843347 0.00604355 0)
(-0.00370102 0.0122236 0)
(-0.00803297 0.0142232 0)
(-0.0125609 0.0140653 0)
(-0.0167735 0.0129125 0)
(-0.0205106 0.0112434 0)
(-0.023669 0.00923766 0)
(-0.0261689 0.00697871 0)
(-0.0279501 0.00452385 0)
(-0.0289668 0.00192375 0)
(-0.0291842 -0.000771067 0)
(-0.0285783 -0.00350601 0)
(-0.0271375 -0.00621813 0)
(-0.0248662 -0.0088313 0)
(-0.0217926 -0.0112484 0)
(-0.0179802 -0.0133295 0)
(-0.0135398 -0.0148191 0)
(-0.00867489 -0.0151441 0)
(-0.00399114 -0.0130425 0)
(-0.000905791 -0.00642215 0)
(-0.000935802 0.0081433 0)
(-0.00411388 0.0163005 0)
(-0.00893092 0.0188831 0)
(-0.0139514 0.0186287 0)
(-0.0186054 0.0170757 0)
(-0.0227223 0.014854 0)
(-0.0261972 0.0122006 0)
(-0.0289519 0.00922557 0)
(-0.030929 0.00600207 0)
(-0.0320837 0.0025923 0)
(-0.0323789 -0.000943804 0)
(-0.031784 -0.00454204 0)
(-0.0302755 -0.00812695 0)
(-0.0278425 -0.0116037 0)
(-0.0244965 -0.0148459 0)
(-0.0202886 -0.0176647 0)
(-0.0153277 -0.0197127 0)
(-0.00983993 -0.0202182 0)
(-0.00452608 -0.0174915 0)
(-0.00102402 -0.00869203 0)
(-0.00106003 0.0104962 0)
(-0.00465581 0.0208709 0)
(-0.0100938 0.0240942 0)
(-0.0157375 0.0237129 0)
(-0.0209432 0.021697 0)
(-0.0255281 0.0188516 0)
(-0.0293888 0.0154804 0)
(-0.0324528 0.0117229 0)
(-0.0346699 0.00766772 0)
(-0.0359996 0.00338553 0)
(-0.0364038 -0.00105932 0)
(-0.0358435 -0.005599 0)
(-0.0342788 -0.0101514 0)
(-0.0316749 -0.0146068 0)
(-0.0280153 -0.0188089 0)
(-0.0233262 -0.0225115 0)
(-0.0177062 -0.025252 0)
(-0.011406 -0.0260135 0)
(-0.0052538 -0.0225941 0)
(-0.00118744 -0.0112912 0)
(-0.00122411 0.0131831 0)
(-0.0053614 0.0260781 0)
(-0.0115911 0.0300055 0)
(-0.0180154 0.0294485 0)
(-0.0238973 0.026882 0)
(-0.029044 0.0233181 0)
(-0.0333594 0.0191399 0)
(-0.0367849 0.0145203 0)
(-0.0392846 0.00956236 0)
(-0.0408286 0.00434015 0)
(-0.0413808 -0.00108531 0)
(-0.0408931 -0.00665223 0)
(-0.0393035 -0.0122819 0)
(-0.0365416 -0.0178581 0)
(-0.0325455 -0.0231973 0)
(-0.0272955 -0.0279862 0)
(-0.02086 -0.0316167 0)
(-0.0135099 -0.0327578 0)
(-0.00624181 -0.0285742 0)
(-0.00141105 -0.0143395 0)
(-0.00143931 0.0163045 0)
(-0.00627472 0.0321002 0)
(-0.0135062 0.0367963 0)
(-0.0208937 0.0359841 0)
(-0.0275847 0.0327421 0)
(-0.0333825 0.028333 0)
(-0.0382108 0.0232358 0)
(-0.0420378 0.0176616 0)
(-0.0448545 0.0117256 0)
(-0.0466512 0.00549764 0)
(-0.0473999 -0.000976276 0)
(-0.0470444 -0.00765515 0)
(-0.0454944 -0.0144803 0)
(-0.0426292 -0.021345 0)
(-0.0383159 -0.0280481 0)
(-0.0324532 -0.0342033 0)
(-0.0250415 -0.0390166 0)
(-0.01635 -0.0407442 0)
(-0.00759342 -0.0357339 0)
(-0.00171907 -0.0179984 0)
(-0.00172417 0.0199912 0)
(-0.0074636 0.0391629 0)
(-0.0159605 0.0446821 0)
(-0.0245227 0.0434839 0)
(-0.0321579 0.0393875 0)
(-0.0386809 0.0339634 0)
(-0.0440564 0.0278083 0)
(-0.0483007 0.021176 0)
(-0.0514508 0.0141892 0)
(-0.053532 0.00690249 0)
(-0.054535 -0.000669715 0)
(-0.0543996 -0.00852877 0)
(-0.053003 -0.0166619 0)
(-0.0501567 -0.025 0)
(-0.0456221 -0.0333483 0)
(-0.0391606 -0.0412521 0)
(-0.0306328 -0.0476869 0)
(-0.0202481 -0.0503533 0)
(-0.00948744 -0.0444968 0)
(-0.00215583 -0.0225001 0)
(-0.00211091 0.0244225 0)
(-0.00903861 0.0475624 0)
(-0.0191406 0.0539254 0)
(-0.0291212 0.0521265 0)
(-0.0378259 0.0469158 0)
(-0.0451137 0.0402493 0)
(-0.051027 0.0328655 0)
(-0.0556623 0.0250643 0)
(-0.0591292 0.0169672 0)
(-0.0615102 0.00859756 0)
(-0.0628309 -8.3833e-05 0)
(-0.0630375 -0.00914998 0)
(-0.0619755 -0.0186718 0)
(-0.0593738 -0.0286638 0)
(-0.0548455 -0.0389875 0)
(-0.0479331 -0.0491519 0)
(-0.0382306 -0.0578665 0)
(-0.0257515 -0.0620814 0)
(-0.0122554 -0.0554845 0)
(-0.00281011 -0.0282061 0)
(-0.0026583 0.0298621 0)
(-0.011187 0.0577035 0)
(-0.023342 0.0648499 0)
(-0.0350131 0.0620953 0)
(-0.0448771 0.0553921 0)
(-0.0529028 0.0471786 0)
(-0.0592688 0.03836 0)
(-0.0641984 0.0292787 0)
(-0.0679106 0.02004 0)
(-0.0705733 0.0106143 0)
(-0.0722707 0.000881032 0)
(-0.0729752 -0.00934072 0)
(-0.0725138 -0.0202556 0)
(-0.0705296 -0.0320324 0)
(-0.0664484 -0.0446797 0)
(-0.0594872 -0.0577613 0)
(-0.0487662 -0.0697357 0)
(-0.0338139 -0.0765664 0)
(-0.016547 -0.0696572 0)
(-0.00387437 -0.0357414 0)
(-0.00347901 0.0367243 0)
(-0.0142367 0.07016 0)
(-0.0290394 0.0778514 0)
(-0.042677 0.0735554 0)
(-0.0537004 0.0648099 0)
(-0.062313 0.0546474 0)
(-0.0689207 0.0441522 0)
(-0.073936 0.0336922 0)
(-0.0777319 0.0233301 0)
(-0.0805957 0.0129544 0)
(-0.0827006 0.00233198 0)
(-0.0840771 -0.00886456 0)
(-0.0845686 -0.021032 0)
(-0.0837599 -0.0345885 0)
(-0.0808818 -0.04984 0)
(-0.0747195 -0.0666064 0)
(-0.063617 -0.083255 0)
(-0.0460648 -0.0945693 0)
(-0.0236524 -0.0885541 0)
(-0.00577953 -0.0463056 0)
(-0.00479744 0.045707 0)
(-0.018776 0.0857653 0)
(-0.0369907 0.0933871 0)
(-0.0527841 0.0865888 0)
(-0.0647556 0.0750156 0)
(-0.073571 0.0623898 0)
(-0.0799949 0.0499525 0)
(-0.0847052 0.0380515 0)
(-0.088275 0.0266617 0)
(-0.0911431 0.0155533 0)
(-0.093603 0.00435118 0)
(-0.0957866 -0.0074496 0)
(-0.0976181 -0.0204894 0)
(-0.0987092 -0.0355414 0)
(-0.0981714 -0.0534222 0)
(-0.0943299 -0.0745812 0)
(-0.0844036 -0.0977667 0)
(-0.0649262 -0.116685 0)
(-0.0359228 -0.114475 0)
(-0.00942799 -0.0622244 0)
(-0.00706348 0.0580616 0)
(-0.0258448 0.10573 0)
(-0.0483082 0.111894 0)
(-0.0660598 0.101043 0)
(-0.0782543 0.085559 0)
(-0.0864142 0.069851 0)
(-0.0918293 0.0552174 0)
(-0.0955182 0.04189 0)
(-0.0982858 0.0296826 0)
(-0.100733 0.0182011 0)
(-0.103289 0.00690739 0)
(-0.106226 -0.0048878 0)
(-0.109635 -0.0180835 0)
(-0.113309 -0.0338818 0)
(-0.116466 -0.0538433 0)
(-0.11717 -0.0796026 0)
(-0.111322 -0.111265 0)
(-0.0923576 -0.142398 0)
(-0.0564503 -0.150116 0)
(-0.0163056 -0.0876456 0)
(-0.011128 0.0761636 0)
(-0.0370856 0.131698 0)
(-0.0640571 0.13344 0)
(-0.0822002 0.116094 0)
(-0.0925608 0.0952808 0)
(-0.0981324 0.0758402 0)
(-0.10088 0.0588731 0)
(-0.10219 0.0443085 0)
(-0.103067 0.031677 0)
(-0.104225 0.0203595 0)
(-0.10618 0.00964725 0)
(-0.109334 -0.00129996 0)
(-0.113997 -0.0135851 0)
(-0.120316 -0.0288159 0)
(-0.127985 -0.0494483 0)
(-0.135376 -0.0789353 0)
(-0.137537 -0.120312 0)
(-0.124337 -0.16955 0)
(-0.0853297 -0.198479 0)
(-0.0273404 -0.130292 0)
(-0.0183386 0.104663 0)
(-0.0540839 0.164821 0)
(-0.0823325 0.15578 0)
(-0.0948998 0.128321 0)
(-0.097974 0.100796 0)
(-0.0966381 0.0774528 0)
(-0.0934149 0.0585922 0)
(-0.0898525 0.0434946 0)
(-0.0869311 0.0312264 0)
(-0.0852583 0.0208812 0)
(-0.0852601 0.0116006 0)
(-0.0873238 0.00247842 0)
(-0.0918923 -0.00765098 0)
(-0.0994992 -0.0206305 0)
(-0.110633 -0.0397447 0)
(-0.124916 -0.070721 0)
(-0.138414 -0.121439 0)
(-0.139485 -0.194659 0)
(-0.109466 -0.261455 0)
(-0.0377595 -0.203097 0)
(-0.0295661 0.151874 0)
(-0.0731328 0.20006 0)
(-0.0846372 0.16679 0)
(-0.0741244 0.126498 0)
(-0.0581108 0.0937542 0)
(-0.042204 0.0688382 0)
(-0.0280184 0.0503387 0)
(-0.0162965 0.0366348 0)
(-0.00730275 0.0262706 0)
(-0.001049 0.0181067 0)
(0.00248558 0.0112512 0)
(0.00320817 0.0048949 0)
(0.000792534 -0.00194334 0)
(-0.00547488 -0.0109271 0)
(-0.0168986 -0.0255228 0)
(-0.03532 -0.0530944 0)
(-0.0612521 -0.106951 0)
(-0.0876885 -0.201004 0)
(-0.0896687 -0.315757 0)
(-0.0261389 -0.299547 0)
(-0.0307123 0.221877 0)
(-0.047216 0.211802 0)
(0.0132825 0.141957 0)
(0.0755028 0.0963691 0)
(0.12251 0.0667754 0)
(0.157547 0.0463502 0)
(0.184052 0.0323473 0)
(0.203909 0.0228263 0)
(0.218482 0.0162069 0)
(0.228846 0.0113915 0)
(0.235736 0.00766246 0)
(0.239536 0.00449455 0)
(0.240234 0.00135998 0)
(0.237205 -0.00259921 0)
(0.228666 -0.00941511 0)
(0.210519 -0.0245252 0)
(0.175276 -0.0614944 0)
(0.115482 -0.144254 0)
(0.049057 -0.277641 0)
(0.0602466 -0.32662 0)
(0.262847 0.136232 0)
(0.327092 0.119098 0)
(0.445407 0.0770162 0)
(0.536325 0.0491978 0)
(0.591661 0.0318725 0)
(0.626058 0.0206281 0)
(0.649003 0.0133797 0)
(0.664806 0.00881651 0)
(0.675798 0.00594673 0)
(0.68347 0.00409012 0)
(0.68874 0.00282575 0)
(0.692109 0.00189579 0)
(0.693739 0.00111849 0)
(0.693336 0.000297111 0)
(0.689666 -0.000972821 0)
(0.679012 -0.00383254 0)
(0.65215 -0.0117875 0)
(0.588675 -0.0336961 0)
(0.453984 -0.0906647 0)
(0.346598 -0.142183 0)
)
;

boundaryField
{
    movingWall
    {
        type            fixedValue;
        value           uniform (1 0 0);
    }
    fixedWalls
    {
        type            noSlip;
    }
    frontAndBack
    {
        type            empty;
    }
}


// ************************************************************************* //
