/*--------------------------------*- C++ -*----------------------------------*\
  =========                 |
  \\      /  F ield         | OpenFOAM: The Open Source CFD Toolbox
   \\    /   O peration     | Website:  https://openfoam.org
    \\  /    A nd           | Version:  6
     \\/     M anipulation  |
\*---------------------------------------------------------------------------*/
FoamFile
{
    version     2.0;
    format      ascii;
    class       volScalarField;
    location    "0.045";
    object      p;
}
// * * * * * * * * * * * * * * * * * * * * * * * * * * * * * * * * * * * * * //

dimensions      [0 2 -2 0 0 0 0];

internalField   nonuniform List<scalar> 
400
(
5.59109e-08
-0.00163418
-0.00318206
-0.00381629
-0.00321013
-0.00128706
0.00187155
0.00608768
0.0111265
0.0167152
0.0225506
0.0283045
0.0336317
0.0381858
0.0416472
0.0437681
0.0444367
0.0437534
0.0421169
0.0404334
0.00161601
-6.69882e-05
-0.00123058
-0.00150024
-0.000758318
0.00106061
0.00391343
0.00766913
0.0121388
0.0170909
0.0222606
0.0273583
0.0320822
0.0361365
0.0392578
0.0412535
0.0420528
0.0417407
0.0404976
0.0387706
0.00326533
0.00099326
-0.000282423
-0.000491008
0.000273622
0.00203338
0.00474461
0.00828956
0.0125003
0.0171679
0.0220492
0.0268748
0.0313619
0.035232
0.0382354
0.0401848
0.0410033
0.0407312
0.039345
0.0370063
0.00421263
0.0011957
-0.000415021
-0.000719721
1.89811e-05
0.00177577
0.00448941
0.00803638
0.0122524
0.0169362
0.0218517
0.0267333
0.0312968
0.0352552
0.0383417
0.040342
0.0411469
0.0407473
0.0389672
0.0358339
0.00410208
0.000333998
-0.00166367
-0.0020974
-0.00136684
0.00046053
0.00330194
0.00702086
0.0114483
0.0163821
0.0215839
0.0267813
0.0316749
0.0359524
0.0393098
0.0414858
0.0423237
0.0417646
0.0395126
0.0355382
0.00269536
-0.00185617
-0.00426659
-0.00482059
-0.00404413
-0.00204564
0.0010674
0.00514034
0.00999382
0.0154189
0.0211688
0.0269562
0.032456
0.0373154
0.0411739
0.0437012
0.0446743
0.0439746
0.0411909
0.0362749
-0.000220193
-0.00565196
-0.00850616
-0.00914713
-0.0082413
-0.00594444
-0.00239424
0.00223171
0.00774016
0.0139127
0.0204917
0.0271708
0.0335917
0.039348
0.044002
0.047127
0.0484035
0.0476267
0.0442385
0.0381762
-0.00490101
-0.0113808
-0.0147182
-0.0153875
-0.0142375
-0.0114872
-0.00731293
-0.00192001
0.00448341
0.0116711
0.0193772
0.0272785
0.0349818
0.0420181
0.0478509
0.051921
0.0537668
0.0530451
0.0489709
0.0414356
-0.0117109
-0.0194778
-0.0233385
-0.023941
-0.0223906
-0.0189967
-0.0139865
-0.00759723
-4.98999e-05
0.00842822
0.0175728
0.0270549
0.0364545
0.0452389
0.0527539
0.0582638
0.0610979
0.0606847
0.0558644
0.0463981
-0.0211877
-0.0305459
-0.0349448
-0.0353187
-0.0331463
-0.0288677
-0.0227756
-0.0151426
-0.00619694
0.00384595
0.0147422
0.0261802
0.0377372
0.048832
0.0586852
0.0663379
0.070819
0.0711862
0.0656535
0.0536794
-0.0341354
-0.0454333
-0.0503031
-0.0501601
-0.0470322
-0.0415447
-0.0340716
-0.0249217
-0.0143203
-0.00245197
0.0104887
0.0242469
0.038444
0.0524948
0.0655148
0.0762889
0.083437
0.085435
0.0794668
0.0643512
-0.0517743
-0.0653458
-0.0704203
-0.0692334
-0.064621
-0.0574601
-0.0482174
-0.0372326
-0.0247126
-0.0107857
0.0044416
0.0208283
0.0381164
0.0558053
0.0729808
0.0881855
0.099531
0.104631
0.0990214
0.0802505
-0.0760062
-0.0920166
-0.0965923
-0.0933937
-0.0864309
-0.0768981
-0.0653481
-0.0521327
-0.037415
-0.0212346
-0.00356214
0.0156478
0.0363655
0.0583199
0.0807282
0.102009
0.119742
0.130365
0.126906
0.104509
-0.109934
-0.127965
-0.130406
-0.123433
-0.112699
-0.0997303
-0.0851134
-0.0691596
-0.0519408
-0.0333607
-0.0131978
0.00886204
0.0331461
0.0598098
0.0884728
0.117725
0.144788
0.164718
0.167008
0.142512
-0.15893
-0.176867
-0.173567
-0.159677
-0.142911
-0.124957
-0.106261
-0.0869685
-0.0669578
-0.0459178
-0.0233637
0.00136958
0.0290924
0.0606033
0.0962894
0.135441
0.175483
0.210307
0.22508
0.203579
-0.232649
-0.243902
-0.227356
-0.201236
-0.175086
-0.150112
-0.12621
-0.103058
-0.0801341
-0.0567702
-0.0321235
-0.00510362
0.0256758
0.0618367
0.104923
0.155674
0.212811
0.270159
0.309063
0.303205
-0.348954
-0.335731
-0.291643
-0.24522
-0.205236
-0.171012
-0.141075
-0.114027
-0.0885473
-0.0633917
-0.0372454
-0.00853736
0.0247379
0.0651372
0.115708
0.179503
0.25808
0.34749
0.429252
0.466521
-0.548859
-0.459832
-0.360952
-0.283967
-0.225966
-0.181392
-0.146017
-0.116331
-0.0896679
-0.0639946
-0.0374808
-0.00810748
0.0266995
0.0704499
0.127982
0.205581
0.309551
0.442718
0.60086
0.745894
-0.945637
-0.618179
-0.405544
-0.290817
-0.218483
-0.169018
-0.133591
-0.105808
-0.0815248
-0.0581368
-0.0336271
-0.00589223
0.0278125
0.0715432
0.131689
0.218278
0.345211
0.533624
0.836831
1.26561
-1.65308
-0.76441
-0.367249
-0.228712
-0.1631
-0.124697
-0.100288
-0.0818964
-0.0650942
-0.04769
-0.0282748
-0.00538645
0.0230636
0.0605171
0.113159
0.19276
0.32198
0.555157
1.06745
2.07029
)
;

boundaryField
{
    movingWall
    {
        type            zeroGradient;
    }
    fixedWalls
    {
        type            zeroGradient;
    }
    frontAndBack
    {
        type            empty;
    }
}


// ************************************************************************* //
