/*--------------------------------*- C++ -*----------------------------------*\
  =========                 |
  \\      /  F ield         | OpenFOAM: The Open Source CFD Toolbox
   \\    /   O peration     | Website:  https://openfoam.org
    \\  /    A nd           | Version:  6
     \\/     M anipulation  |
\*---------------------------------------------------------------------------*/
FoamFile
{
    version     2.0;
    format      ascii;
    class       surfaceScalarField;
    location    "0.045";
    object      phi;
}
// * * * * * * * * * * * * * * * * * * * * * * * * * * * * * * * * * * * * * //

dimensions      [0 3 -1 0 0 0 0];

internalField   nonuniform List<scalar> 
760
(
2.67281e-09
-2.67319e-09
-3.62316e-08
3.89044e-08
-1.11319e-07
7.50879e-08
-2.06796e-07
9.54768e-08
-3.08452e-07
1.01656e-07
-4.05185e-07
9.67322e-08
-4.88868e-07
8.3683e-08
-5.53798e-07
6.493e-08
-5.96055e-07
4.22575e-08
-6.13047e-07
1.69921e-08
-6.03325e-07
-9.72291e-09
-5.66672e-07
-3.66521e-08
-5.04453e-07
-6.22196e-08
-4.20138e-07
-8.43144e-08
-3.19948e-07
-1.00191e-07
-2.13386e-07
-1.06562e-07
-1.13378e-07
-1.00008e-07
-3.56775e-08
-7.77001e-08
3.494e-09
-3.91715e-08
3.49399e-09
-3.78255e-08
3.51524e-08
-1.58758e-07
1.59837e-07
-3.46391e-07
2.62721e-07
-5.73189e-07
3.22276e-07
-8.11399e-07
3.39866e-07
-1.03742e-06
3.2275e-07
-1.23289e-06
2.79156e-07
-1.38435e-06
2.16392e-07
-1.48238e-06
1.40285e-07
-1.52085e-06
5.5463e-08
-1.49662e-06
-3.3958e-08
-1.40967e-06
-1.23598e-07
-1.2638e-06
-2.08092e-07
-1.06755e-06
-2.80561e-07
-8.35307e-07
-3.32435e-07
-5.87924e-07
-3.53945e-07
-3.52327e-07
-3.35605e-07
-1.59135e-07
-2.70892e-07
-3.68511e-08
-1.61455e-07
-3.33569e-08
-7.66545e-08
1.11807e-07
-2.73292e-07
3.56474e-07
-5.55455e-07
5.44885e-07
-8.85133e-07
6.51954e-07
-1.2259e-06
6.80636e-07
-1.54667e-06
6.43519e-07
-1.82292e-06
5.55405e-07
-2.03641e-06
4.2988e-07
-2.17426e-06
2.78131e-07
-2.22809e-06
1.09297e-07
-2.19365e-06
-6.83941e-08
-2.07102e-06
-2.46229e-07
-1.86542e-06
-4.13691e-07
-1.58848e-06
-5.57504e-07
-1.25951e-06
-6.61406e-07
-9.06261e-07
-7.07194e-07
-5.64283e-07
-6.77582e-07
-2.74051e-07
-5.61124e-07
-7.52487e-08
-3.60258e-07
-1.08605e-07
-1.07479e-07
2.19286e-07
-3.70774e-07
6.1977e-07
-7.36867e-07
9.10977e-07
-1.15582e-06
1.07091e-06
-1.58315e-06
1.10796e-06
-1.98202e-06
1.0424e-06
-2.32384e-06
8.97224e-07
-2.58744e-06
6.93477e-07
-2.75787e-06
4.48559e-07
-2.82532e-06
1.76743e-07
-2.78459e-06
-1.09117e-07
-2.63539e-06
-3.95432e-07
-2.38328e-06
-6.65798e-07
-2.04132e-06
-8.99461e-07
-1.63179e-06
-1.07094e-06
-1.18735e-06
-1.15163e-06
-7.50808e-07
-1.11412e-06
-3.72545e-07
-9.39387e-07
-1.05497e-07
-6.27306e-07
-2.14102e-07
-1.33907e-07
3.53193e-07
-4.58968e-07
9.44831e-07
-9.04841e-07
1.35685e-06
-1.40864e-06
1.5747e-06
-1.91726e-06
1.61659e-06
-2.38854e-06
1.51368e-06
-2.79066e-06
1.29935e-06
-3.10059e-06
1.00341e-06
-3.30217e-06
6.50135e-07
-3.38458e-06
2.59155e-07
-3.34163e-06
-1.52072e-07
-3.17196e-06
-5.65095e-07
-2.8804e-06
-9.5736e-07
-2.48004e-06
-1.29982e-06
-1.99483e-06
-1.55615e-06
-1.46169e-06
-1.68478e-06
-9.31091e-07
-1.64472e-06
-4.65049e-07
-1.40543e-06
-1.32037e-07
-9.60317e-07
-3.4614e-07
-1.60118e-07
5.13311e-07
-5.48544e-07
1.33326e-06
-1.07737e-06
1.88567e-06
-1.66938e-06
2.16672e-06
-2.26193e-06
2.20913e-06
-2.80731e-06
2.05906e-06
-3.27099e-06
1.76303e-06
-3.62882e-06
1.36123e-06
-3.86406e-06
8.85379e-07
-3.96521e-06
3.60308e-07
-3.92483e-06
-1.92453e-07
-3.73975e-06
-7.50174e-07
-3.41273e-06
-1.28439e-06
-2.9554e-06
-1.75715e-06
-2.39213e-06
-2.11942e-06
-1.76373e-06
-2.31318e-06
-1.12947e-06
-2.27898e-06
-5.65748e-07
-1.96915e-06
-1.60124e-07
-1.36594e-06
-5.06265e-07
-1.89988e-07
7.03299e-07
-6.50254e-07
1.79352e-06
-1.27249e-06
2.50791e-06
-1.96275e-06
2.85697e-06
-2.64749e-06
2.89387e-06
-3.27329e-06
2.68486e-06
-3.80351e-06
2.29325e-06
-4.21373e-06
1.77145e-06
-4.4875e-06
1.15915e-06
-4.61301e-06
4.85819e-07
-4.58138e-06
-2.24091e-07
-4.38666e-06
-9.44895e-07
-4.02792e-06
-1.64312e-06
-3.51331e-06
-2.27176e-06
-2.86572e-06
-2.76701e-06
-2.12897e-06
-3.04994e-06
-1.37225e-06
-3.0357e-06
-6.90117e-07
-2.65128e-06
-1.95086e-07
-1.86097e-06
-7.0135e-07
-2.27201e-07
9.305e-07
-7.7448e-07
2.3408e-06
-1.50717e-06
3.2406e-06
-2.31069e-06
3.66049e-06
-3.09903e-06
3.68222e-06
-3.81323e-06
3.39906e-06
-4.41564e-06
2.89565e-06
-4.8831e-06
2.23892e-06
-5.20074e-06
1.47679e-06
-5.35728e-06
6.4235e-07
-5.34234e-06
-2.39023e-07
-5.14624e-06
-1.14099e-06
-4.76229e-06
-2.02707e-06
-4.19217e-06
-2.84188e-06
-3.45409e-06
-3.50509e-06
-2.59262e-06
-3.91141e-06
-1.68721e-06
-3.94111e-06
-8.55064e-07
-3.48343e-06
-2.42723e-07
-2.47331e-06
-9.44073e-07
-2.7556e-07
1.20606e-06
-9.31494e-07
2.99674e-06
-1.79698e-06
4.10608e-06
-2.73129e-06
4.5948e-06
-3.63437e-06
4.5853e-06
-4.44265e-06
4.20734e-06
-5.11971e-06
3.57272e-06
-5.64619e-06
2.76539e-06
-6.01096e-06
1.84157e-06
-6.20473e-06
8.36122e-07
-6.21617e-06
-2.27585e-07
-6.03095e-06
-1.32622e-06
-5.63419e-06
-2.42383e-06
-5.01707e-06
-3.45901e-06
-4.18795e-06
-4.3342e-06
-3.18735e-06
-4.91201e-06
-2.10316e-06
-5.0253e-06
-1.0796e-06
-4.50698e-06
-3.09936e-07
-3.24298e-06
-1.25401e-06
-3.39484e-07
1.54554e-06
-1.13197e-06
3.78922e-06
-2.15573e-06
5.12985e-06
-3.2368e-06
5.67587e-06
-4.26016e-06
5.60865e-06
-5.16024e-06
5.10742e-06
-5.90577e-06
4.31825e-06
-6.48507e-06
3.34469e-06
-6.89416e-06
2.25066e-06
-7.12821e-06
1.07017e-06
-7.1762e-06
-1.796e-07
-7.01889e-06
-1.48352e-06
-6.63086e-06
-2.81186e-06
-5.98774e-06
-4.10212e-06
-5.08055e-06
-5.2414e-06
-3.93708e-06
-6.05548e-06
-2.64746e-06
-6.31492e-06
-1.385e-06
-5.76945e-06
-4.05442e-07
-4.22253e-06
-1.65945e-06
-4.24669e-07
1.97021e-06
-1.38728e-06
4.75183e-06
-2.59385e-06
6.33642e-06
-3.8291e-06
6.91112e-06
-4.96436e-06
6.74391e-06
-5.9375e-06
6.08057e-06
-6.72872e-06
5.10947e-06
-7.33979e-06
3.95576e-06
-7.77855e-06
2.68942e-06
-8.04822e-06
1.33984e-06
-8.14054e-06
-8.72742e-08
-8.03234e-06
-1.59172e-06
-7.68613e-06
-3.15808e-06
-7.057e-06
-4.73125e-06
-6.10893e-06
-6.18946e-06
-4.84334e-06
-7.32107e-06
-3.33891e-06
-7.81935e-06
-1.79315e-06
-7.31522e-06
-5.40386e-07
-5.47529e-06
-2.19984e-06
-5.39085e-07
2.5093e-06
-1.70935e-06
5.92209e-06
-3.11431e-06
7.74138e-06
-4.49071e-06
8.28753e-06
-5.70252e-06
7.95572e-06
-6.7013e-06
7.07935e-06
-7.48834e-06
5.89651e-06
-8.08645e-06
4.55387e-06
-8.521e-06
3.12397e-06
-8.80775e-06
1.62659e-06
-8.94492e-06
4.98941e-08
-8.90818e-06
-1.62846e-06
-8.64891e-06
-3.41735e-06
-8.09844e-06
-5.28172e-06
-7.18371e-06
-7.1042e-06
-5.86102e-06
-8.64376e-06
-4.17284e-06
-9.50752e-06
-2.32162e-06
-9.16643e-06
-7.28789e-07
-7.06813e-06
-2.92863e-06
-6.94781e-07
3.20408e-06
-2.10939e-06
7.33671e-06
-3.7042e-06
9.33619e-06
-5.16835e-06
9.75167e-06
-6.37513e-06
9.1625e-06
-7.3075e-06
8.01172e-06
-8.00127e-06
6.59028e-06
-8.50901e-06
5.06161e-06
-8.87916e-06
3.49412e-06
-9.14423e-06
1.89166e-06
-9.31332e-06
2.18984e-07
-9.36604e-06
-1.57574e-06
-9.24749e-06
-3.5359e-06
-8.86708e-06
-5.66212e-06
-8.1083e-06
-7.86298e-06
-6.8616e-06
-9.89046e-06
-5.09557e-06
-1.12736e-05
-2.97335e-06
-1.12887e-05
-9.87774e-07
-9.0537e-06
-3.9164e-06
-9.11303e-07
4.11538e-06
-2.59445e-06
9.01985e-06
-4.31781e-06
1.10595e-05
-5.74419e-06
1.11781e-05
-6.79227e-06
1.02106e-05
-7.50428e-06
8.72373e-06
-7.96675e-06
7.05275e-06
-8.26932e-06
5.36419e-06
-8.48608e-06
3.71087e-06
-8.66782e-06
2.07341e-06
-8.83781e-06
3.88966e-07
-8.98623e-06
-1.42732e-06
-9.06201e-06
-3.46012e-06
-8.96332e-06
-5.7608e-06
-8.5344e-06
-8.29191e-06
-7.58539e-06
-1.08395e-05
-5.96457e-06
-1.28944e-05
-3.71679e-06
-1.35364e-05
-1.33675e-06
-1.14337e-05
-5.25315e-06
-1.22041e-06
5.3358e-06
-3.15479e-06
1.09542e-05
-4.83978e-06
1.27445e-05
-5.98416e-06
1.23224e-05
-6.61943e-06
1.08458e-05
-6.88455e-06
8.98885e-06
-6.93042e-06
7.09862e-06
-6.88376e-06
5.31753e-06
-6.83889e-06
3.66601e-06
-6.85988e-06
2.0944e-06
-6.98317e-06
5.12261e-07
-7.21553e-06
-1.19496e-06
-7.52422e-06
-3.15144e-06
-7.81858e-06
-5.46644e-06
-7.92709e-06
-8.1834e-06
-7.58705e-06
-1.11795e-05
-6.48859e-06
-1.39928e-05
-4.4455e-06
-1.55795e-05
-1.79024e-06
-1.4089e-05
-7.04339e-06
-1.66246e-06
6.99826e-06
-3.71536e-06
1.30071e-05
-4.99709e-06
1.40263e-05
-5.44028e-06
1.27656e-05
-5.2944e-06
1.07e-05
-4.82874e-06
8.52319e-06
-4.25503e-06
6.52491e-06
-3.71915e-06
4.78165e-06
-3.3158e-06
3.26266e-06
-3.10647e-06
1.88507e-06
-3.13226e-06
5.38044e-07
-3.41793e-06
-9.09287e-07
-3.96425e-06
-2.60512e-06
-4.72408e-06
-4.70661e-06
-5.55902e-06
-7.34846e-06
-6.18367e-06
-1.05549e-05
-6.13764e-06
-1.40389e-05
-4.89028e-06
-1.68269e-05
-2.32398e-06
-1.66553e-05
-9.36737e-06
-2.23532e-06
9.23358e-06
-3.96745e-06
1.47393e-05
-4.14289e-06
1.42017e-05
-3.2636e-06
1.18863e-05
-1.9029e-06
9.33926e-06
-4.45238e-07
7.06552e-06
8.86059e-07
5.19361e-06
1.97491e-06
3.6928e-06
2.7647e-06
2.47287e-06
3.22345e-06
1.42632e-06
3.32218e-06
4.39318e-07
3.02436e-06
-6.11472e-07
2.28748e-06
-1.86823e-06
1.08293e-06
-3.50207e-06
-5.52401e-07
-5.71313e-06
-2.41819e-06
-8.68906e-06
-4.01299e-06
-1.24441e-05
-4.4427e-06
-1.63972e-05
-2.76894e-06
-1.83291e-05
-1.21363e-05
-2.67411e-06
1.19077e-05
-2.8576e-06
1.49228e-05
-7.54727e-07
1.20988e-05
2.13247e-06
8.99914e-06
4.9837e-06
6.48803e-06
7.46204e-06
4.58719e-06
9.46009e-06
3.19555e-06
1.09727e-05
2.18018e-06
1.20287e-05
1.41687e-06
1.26531e-05
8.01877e-07
1.28469e-05
2.45566e-07
1.25748e-05
-3.39407e-07
1.17597e-05
-1.05314e-06
1.02863e-05
-2.02862e-06
8.03185e-06
-3.45869e-06
4.96207e-06
-5.61928e-06
1.35221e-06
-8.83419e-06
-1.81654e-06
-1.32284e-05
-2.56266e-06
-1.75829e-05
-1.4699e-05
-1.26294e-06
1.31706e-05
3.02532e-06
1.06345e-05
8.60489e-06
6.51926e-06
1.3504e-05
4.10001e-06
1.73638e-05
2.62829e-06
2.02625e-05
1.68842e-06
2.23714e-05
1.08666e-06
2.3856e-05
6.95613e-07
2.4844e-05
4.28887e-07
2.54163e-05
2.29573e-07
2.56045e-05
5.7351e-08
2.53871e-05
-1.22055e-07
2.46805e-05
-3.46549e-07
2.33227e-05
-6.7077e-07
2.10541e-05
-1.19005e-06
1.75235e-05
-2.08873e-06
1.24182e-05
-3.72886e-06
5.94217e-06
-6.75243e-06
1.42853e-07
-1.17836e-05
-1.45561e-05
1.31706e-05
2.38051e-05
3.03244e-05
3.44244e-05
3.70527e-05
3.87411e-05
3.98278e-05
4.05234e-05
4.09523e-05
4.11818e-05
4.12392e-05
4.11171e-05
4.07706e-05
4.00998e-05
3.89098e-05
3.6821e-05
3.30922e-05
2.63398e-05
1.45561e-05
)
;

boundaryField
{
    movingWall
    {
        type            calculated;
        value           uniform 0;
    }
    fixedWalls
    {
        type            calculated;
        value           uniform 0;
    }
    frontAndBack
    {
        type            empty;
        value           nonuniform 0();
    }
}


// ************************************************************************* //
