/*--------------------------------*- C++ -*----------------------------------*\
  =========                 |
  \\      /  F ield         | OpenFOAM: The Open Source CFD Toolbox
   \\    /   O peration     | Website:  https://openfoam.org
    \\  /    A nd           | Version:  6
     \\/     M anipulation  |
\*---------------------------------------------------------------------------*/
FoamFile
{
    version     2.0;
    format      ascii;
    class       volVectorField;
    location    "0.045";
    object      U;
}
// * * * * * * * * * * * * * * * * * * * * * * * * * * * * * * * * * * * * * //

dimensions      [0 1 -1 0 0 0 0];

internalField   nonuniform List<vector> 
400
(
(0.0001027 -0.000101713 0)
(-0.000188218 0.000215853 0)
(-0.00136377 0.000516943 0)
(-0.00312888 0.000686596 0)
(-0.00515182 0.000739564 0)
(-0.00717567 0.000705652 0)
(-0.00900926 0.000610935 0)
(-0.0105161 0.000475017 0)
(-0.0116019 0.000311231 0)
(-0.0122027 0.000128724 0)
(-0.0122785 -6.49729e-05 0)
(-0.0118117 -0.000261555 0)
(-0.0108122 -0.000449859 0)
(-0.00932613 -0.000614121 0)
(-0.00744829 -0.000732847 0)
(-0.00533512 -0.000779024 0)
(-0.00321187 -0.000722761 0)
(-0.00137175 -0.000536634 0)
(-0.000167763 -0.000215699 0)
(0.000113835 0.000110233 0)
(-0.000199321 0.000171278 0)
(-0.00161715 0.00162637 0)
(-0.00479088 0.00289442 0)
(-0.00908218 0.00363139 0)
(-0.0138549 0.00385854 0)
(-0.0185938 0.00367389 0)
(-0.0228821 0.00318145 0)
(-0.0264039 0.00246967 0)
(-0.0289341 0.00160628 0)
(-0.0303199 0.00064328 0)
(-0.0304692 -0.000373859 0)
(-0.0293486 -0.00139639 0)
(-0.0269923 -0.00236338 0)
(-0.0235186 -0.00319491 0)
(-0.0191531 -0.00378918 0)
(-0.0142475 -0.0040272 0)
(-0.00928162 -0.00378952 0)
(-0.00483823 -0.00298773 0)
(-0.00159586 -0.00163898 0)
(-0.000183193 -0.000144638 0)
(-0.000509499 0.00132631 0)
(-0.00300679 0.00482135 0)
(-0.0079354 0.00762616 0)
(-0.0142676 0.0092488 0)
(-0.0211407 0.00971542 0)
(-0.0278883 0.00921383 0)
(-0.03396 0.00796568 0)
(-0.0389305 0.00617263 0)
(-0.0424932 0.00399876 0)
(-0.0444391 0.00157668 0)
(-0.0446426 -0.000974691 0)
(-0.0430596 -0.00352921 0)
(-0.039738 -0.00593385 0)
(-0.03484 -0.0079944 0)
(-0.0286698 -0.00947174 0)
(-0.0216981 -0.0100967 0)
(-0.0145578 -0.00961276 0)
(-0.00800875 -0.00785122 0)
(-0.0029776 -0.00486696 0)
(-0.000485919 -0.00127604 0)
(-0.000744864 0.00318967 0)
(-0.00416171 0.00946899 0)
(-0.0106534 0.0141742 0)
(-0.0187802 0.0168153 0)
(-0.0274485 0.0174858 0)
(-0.0358675 0.0165001 0)
(-0.043394 0.0142267 0)
(-0.0495339 0.0110053 0)
(-0.0539322 0.00711818 0)
(-0.0563457 0.0027971 0)
(-0.0566256 -0.00174842 0)
(-0.0547139 -0.00629684 0)
(-0.050657 -0.0105816 0)
(-0.0446327 -0.0142671 0)
(-0.0369868 -0.0169436 0)
(-0.0282673 -0.0181542 0)
(-0.0192245 -0.0174657 0)
(-0.0107795 -0.0145896 0)
(-0.00412577 -0.00956594 0)
(-0.000710314 -0.00310326 0)
(-0.000935308 0.00561088 0)
(-0.00517957 0.0153623 0)
(-0.0131471 0.0223015 0)
(-0.0229845 0.0260513 0)
(-0.0333503 0.0268573 0)
(-0.0433271 0.0252163 0)
(-0.052193 0.0216799 0)
(-0.0594069 0.0167494 0)
(-0.0645851 0.0108385 0)
(-0.0674644 0.00428563 0)
(-0.0678764 -0.0026048 0)
(-0.0657421 -0.00951129 0)
(-0.0610879 -0.0160446 0)
(-0.0540809 -0.0217106 0)
(-0.0450801 -0.0258997 0)
(-0.0346885 -0.0279246 0)
(-0.0237693 -0.027121 0)
(-0.0134277 -0.0230155 0)
(-0.00516903 -0.0155586 0)
(-0.000892273 -0.00547995 0)
(-0.00111872 0.00854283 0)
(-0.00620086 0.0224735 0)
(-0.0156971 0.032016 0)
(-0.0273163 0.0369765 0)
(-0.039442 0.0378414 0)
(-0.0510182 0.0353618 0)
(-0.0612497 0.0303216 0)
(-0.0695617 0.0234117 0)
(-0.075558 0.0151895 0)
(-0.0789657 0.00610073 0)
(-0.079598 -0.00346095 0)
(-0.0773447 -0.0130796 0)
(-0.0721906 -0.0222429 0)
(-0.0642625 -0.0302834 0)
(-0.0539021 -0.0363575 0)
(-0.0417483 -0.0394884 0)
(-0.0287821 -0.0386997 0)
(-0.0163324 -0.0332404 0)
(-0.00628951 -0.0228906 0)
(-0.00107755 -0.00838194 0)
(-0.00132881 0.0120211 0)
(-0.00736435 0.0309072 0)
(-0.01859 0.0434628 0)
(-0.0322068 0.04974 0)
(-0.0462788 0.050567 0)
(-0.0595989 0.0470391 0)
(-0.0713047 0.040235 0)
(-0.0808051 0.0310703 0)
(-0.0877098 0.0202566 0)
(-0.0917498 0.00834063 0)
(-0.0927229 -0.00421086 0)
(-0.0904764 -0.0169056 0)
(-0.0849269 -0.029118 0)
(-0.0761222 -0.0399985 0)
(-0.0643442 -0.0484288 0)
(-0.0502351 -0.0530638 0)
(-0.0348915 -0.0524995 0)
(-0.0199118 -0.0455758 0)
(-0.00768283 -0.0317957 0)
(-0.00131061 -0.0118924 0)
(-0.00159717 0.0161557 0)
(-0.00880453 0.040901 0)
(-0.0221022 0.0569211 0)
(-0.0380536 0.0646007 0)
(-0.0543398 0.0652433 0)
(-0.0695937 0.0604053 0)
(-0.082903 0.0515408 0)
(-0.0936893 0.0398311 0)
(-0.101599 0.0261509 0)
(-0.106389 0.0111324 0)
(-0.107851 -0.00471474 0)
(-0.105781 -0.0208566 0)
(-0.099996 -0.0365814 0)
(-0.0904128 -0.0508596 0)
(-0.0771876 -0.0622579 0)
(-0.0609047 -0.0689624 0)
(-0.0427468 -0.0689807 0)
(-0.0246203 -0.060546 0)
(-0.00956533 -0.0427166 0)
(-0.0016398 -0.0162039 0)
(-0.00195772 0.0211308 0)
(-0.0106597 0.0528247 0)
(-0.0265011 0.0727926 0)
(-0.0452076 0.0818985 0)
(-0.0639959 0.0821148 0)
(-0.0813429 0.0756183 0)
(-0.0963252 0.064341 0)
(-0.108428 0.0497783 0)
(-0.117383 0.0329723 0)
(-0.123013 0.0146131 0)
(-0.125124 -0.00479515 0)
(-0.123457 -0.0247349 0)
(-0.117698 -0.0444605 0)
(-0.107568 -0.0627894 0)
(-0.0930008 -0.077943 0)
(-0.0744137 -0.0875232 0)
(-0.052992 -0.0887298 0)
(-0.0309554 -0.0788905 0)
(-0.012192 -0.0563293 0)
(-0.00212573 -0.0216345 0)
(-0.00245341 0.0272114 0)
(-0.0130858 0.0671769 0)
(-0.0320497 0.0915702 0)
(-0.0539512 0.101994 0)
(-0.0754522 0.101379 0)
(-0.0949077 0.0927446 0)
(-0.111458 0.0786288 0)
(-0.124736 0.0608941 0)
(-0.134632 0.0407463 0)
(-0.141095 0.0188897 0)
(-0.143984 -0.00424741 0)
(-0.142998 -0.0282515 0)
(-0.137668 -0.0524337 0)
(-0.127446 -0.0755251 0)
(-0.111916 -0.0954063 0)
(-0.0911564 -0.108981 0)
(-0.0661812 -0.112362 0)
(-0.0394421 -0.101527 0)
(-0.0158747 -0.0735643 0)
(-0.00285248 -0.0286577 0)
(-0.00314636 0.0347624 0)
(-0.0162735 0.0845803 0)
(-0.039 0.113782 0)
(-0.0644398 0.125162 0)
(-0.0886265 0.123057 0)
(-0.109888 0.111621 0)
(-0.127562 0.0941558 0)
(-0.14155 0.072941 0)
(-0.152011 0.0493265 0)
(-0.159099 0.0239677 0)
(-0.162789 -0.00287831 0)
(-0.162773 -0.0310225 0)
(-0.158429 -0.0599694 0)
(-0.148879 -0.0884944 0)
(-0.133213 -0.114209 0)
(-0.110931 -0.13325 0)
(-0.0825673 -0.140325 0)
(-0.0505545 -0.129438 0)
(-0.0209893 -0.0956032 0)
(-0.0039422 -0.0379472 0)
(-0.00413497 0.0442841 0)
(-0.0204688 0.105765 0)
(-0.0475591 0.139879 0)
(-0.0765724 0.151418 0)
(-0.102919 0.146783 0)
(-0.125108 0.131649 0)
(-0.142889 0.110247 0)
(-0.15661 0.0853014 0)
(-0.166826 0.0582597 0)
(-0.173996 0.0296414 0)
(-0.178291 -0.000584053 0)
(-0.179465 -0.0326002 0)
(-0.176784 -0.0662903 0)
(-0.169031 -0.100684 0)
(-0.154682 -0.133312 0)
(-0.132375 -0.159589 0)
(-0.101697 -0.172548 0)
(-0.0645263 -0.163418 0)
(-0.0279589 -0.123811 0)
(-0.00557552 -0.0504349 0)
(-0.00558654 0.0564774 0)
(-0.0260027 0.131515 0)
(-0.057804 0.170027 0)
(-0.0897391 0.18021 0)
(-0.116807 0.171488 0)
(-0.138109 0.15151 0)
(-0.154133 0.125564 0)
(-0.165889 0.096787 0)
(-0.174462 0.0666292 0)
(-0.180706 0.03536 0)
(-0.185068 0.00253571 0)
(-0.187459 -0.0325557 0)
(-0.18714 -0.0703897 0)
(-0.182639 -0.110542 0)
(-0.171801 -0.150806 0)
(-0.152158 -0.186151 0)
(-0.121756 -0.207862 0)
(-0.0809858 -0.203562 0)
(-0.0371939 -0.15952 0)
(-0.00802141 -0.0673813 0)
(-0.00779921 0.0723612 0)
(-0.0333299 0.162532 0)
(-0.069485 0.203692 0)
(-0.102345 0.209914 0)
(-0.127184 0.194939 0)
(-0.144413 0.16881 0)
(-0.155706 0.137859 0)
(-0.162949 0.105475 0)
(-0.167836 0.0729358 0)
(-0.171639 0.0401203 0)
(-0.17512 0.00606055 0)
(-0.178441 -0.0306048 0)
(-0.181031 -0.0711351 0)
(-0.18139 -0.115983 0)
(-0.176926 -0.163715 0)
(-0.164022 -0.209475 0)
(-0.138628 -0.2432 0)
(-0.0983209 -0.248388 0)
(-0.0489259 -0.203525 0)
(-0.0116693 -0.090439 0)
(-0.0112923 0.0934665 0)
(-0.0430093 0.199079 0)
(-0.0815202 0.238897 0)
(-0.110866 0.237077 0)
(-0.128236 0.213181 0)
(-0.136468 0.179761 0)
(-0.138887 0.143854 0)
(-0.138344 0.108708 0)
(-0.137051 0.0751416 0)
(-0.136577 0.0424895 0)
(-0.137919 0.00920315 0)
(-0.141532 -0.0267494 0)
(-0.147213 -0.0674906 0)
(-0.153817 -0.114616 0)
(-0.158819 -0.168067 0)
(-0.157869 -0.224174 0)
(-0.144667 -0.272718 0)
(-0.112565 -0.293535 0)
(-0.062722 -0.255063 0)
(-0.0169897 -0.121626 0)
(-0.016797 0.122203 0)
(-0.0552346 0.240137 0)
(-0.0905352 0.270869 0)
(-0.107859 0.255372 0)
(-0.109563 0.220031 0)
(-0.102225 0.17914 0)
(-0.0909688 0.139484 0)
(-0.0793082 0.103462 0)
(-0.0695574 0.0710426 0)
(-0.0632021 0.0408925 0)
(-0.0612233 0.0109396 0)
(-0.0642801 -0.0213637 0)
(-0.0726885 -0.0588536 0)
(-0.0861232 -0.104295 0)
(-0.10296 -0.159476 0)
(-0.119209 -0.223173 0)
(-0.127182 -0.287196 0)
(-0.115411 -0.330145 0)
(-0.0760848 -0.310106 0)
(-0.0241076 -0.163256 0)
(-0.0245266 0.162851 0)
(-0.0675576 0.281315 0)
(-0.0866926 0.28932 0)
(-0.0776562 0.254047 0)
(-0.0529923 0.206802 0)
(-0.0233471 0.160799 0)
(0.005327 0.120746 0)
(0.0299165 0.0872424 0)
(0.0488912 0.059061 0)
(0.0614963 0.0342235 0)
(0.0672007 0.0103792 0)
(0.0653769 -0.0151458 0)
(0.0552004 -0.0454284 0)
(0.0358216 -0.0839755 0)
(0.00701238 -0.134376 0)
(-0.0293628 -0.198829 0)
(-0.0667588 -0.274104 0)
(-0.0908711 -0.343009 0)
(-0.0810695 -0.358494 0)
(-0.0310773 -0.217991 0)
(-0.029883 0.220615 0)
(-0.0665026 0.308547 0)
(-0.0428591 0.274089 0)
(0.0122085 0.217228 0)
(0.0722254 0.163821 0)
(0.126471 0.119901 0)
(0.171472 0.0858272 0)
(0.206524 0.0598122 0)
(0.232074 0.039538 0)
(0.248794 0.0227506 0)
(0.257021 0.00730599 0)
(0.256457 -0.00900383 0)
(0.245991 -0.0287352 0)
(0.223642 -0.0551585 0)
(0.186821 -0.0926094 0)
(0.133455 -0.146329 0)
(0.0645711 -0.220262 0)
(-0.00982166 -0.309448 0)
(-0.0568744 -0.376722 0)
(-0.0279897 -0.282983 0)
(0.00287402 0.269874 0)
(0.00683522 0.281108 0)
(0.111513 0.200776 0)
(0.224012 0.136948 0)
(0.313104 0.0926263 0)
(0.380076 0.0621526 0)
(0.429436 0.0414487 0)
(0.464782 0.0273066 0)
(0.489058 0.0172863 0)
(0.504391 0.00961087 0)
(0.511936 0.00291281 0)
(0.511819 -0.00403707 0)
(0.503036 -0.0126192 0)
(0.483188 -0.0247651 0)
(0.448148 -0.0436172 0)
(0.391832 -0.0745795 0)
(0.305792 -0.126401 0)
(0.18261 -0.209565 0)
(0.0534068 -0.315741 0)
(0.0274889 -0.310552 0)
(0.294964 0.143678 0)
(0.385149 0.126266 0)
(0.538032 0.077 0)
(0.65179 0.0452605 0)
(0.719477 0.0267899 0)
(0.760985 0.0158922 0)
(0.787669 0.00945643 0)
(0.804895 0.00562311 0)
(0.815771 0.00324283 0)
(0.822147 0.00161931 0)
(0.824947 0.000310675 0)
(0.824363 -0.00101586 0)
(0.819895 -0.0027029 0)
(0.810156 -0.00525371 0)
(0.792364 -0.00961801 0)
(0.761191 -0.0178183 0)
(0.704857 -0.034242 0)
(0.59699 -0.0674838 0)
(0.430256 -0.125245 0)
(0.317369 -0.150827 0)
)
;

boundaryField
{
    movingWall
    {
        type            fixedValue;
        value           uniform (1 0 0);
    }
    fixedWalls
    {
        type            noSlip;
    }
    frontAndBack
    {
        type            empty;
    }
}


// ************************************************************************* //
