/*--------------------------------*- C++ -*----------------------------------*\
  =========                 |
  \\      /  F ield         | OpenFOAM: The Open Source CFD Toolbox
   \\    /   O peration     | Website:  https://openfoam.org
    \\  /    A nd           | Version:  6
     \\/     M anipulation  |
\*---------------------------------------------------------------------------*/
FoamFile
{
    version     2.0;
    format      ascii;
    class       surfaceScalarField;
    location    "0.08";
    object      phi;
}
// * * * * * * * * * * * * * * * * * * * * * * * * * * * * * * * * * * * * * //

dimensions      [0 3 -1 0 0 0 0];

internalField   nonuniform List<scalar> 
760
(
1.47375e-08
-1.4763e-08
-2.09027e-08
3.56403e-08
-1.12831e-07
9.19282e-08
-2.44801e-07
1.31971e-07
-3.96743e-07
1.51942e-07
-5.49354e-07
1.52612e-07
-6.85944e-07
1.3659e-07
-7.93266e-07
1.07322e-07
-8.6177e-07
6.85041e-08
-8.85641e-07
2.38713e-08
-8.62801e-07
-2.28401e-08
-7.94953e-07
-6.78479e-08
-6.87676e-07
-1.07277e-07
-5.50515e-07
-1.37161e-07
-3.96962e-07
-1.53553e-07
-2.44121e-07
-1.52842e-07
-1.11699e-07
-1.32423e-07
-1.99515e-08
-9.17475e-08
1.51068e-08
-3.50579e-08
1.51073e-08
-3.30354e-08
1.82723e-08
-1.77832e-07
1.80437e-07
-4.31271e-07
3.45368e-07
-7.6318e-07
4.63879e-07
-1.13347e-06
5.22236e-07
-1.50098e-06
5.20122e-07
-1.82846e-06
4.64067e-07
-2.08535e-06
3.64208e-07
-2.24914e-06
2.323e-07
-2.30601e-06
8.07398e-08
-2.25106e-06
-7.77949e-08
-2.08849e-06
-2.30416e-07
-1.83171e-06
-3.64057e-07
-1.5032e-06
-4.65667e-07
-1.13396e-06
-5.22796e-07
-7.61965e-07
-5.24836e-07
-4.29132e-07
-4.65257e-07
-1.75913e-07
-3.44967e-07
-3.21767e-08
-1.78795e-07
-1.70689e-08
-9.0598e-08
1.0887e-07
-3.53649e-07
4.43488e-07
-7.61344e-07
7.53063e-07
-1.26754e-06
9.70076e-07
-1.81722e-06
1.07192e-06
-2.35477e-06
1.05767e-06
-2.82975e-06
9.39042e-07
-3.20052e-06
7.34984e-07
-3.43628e-06
4.68062e-07
-3.51803e-06
1.62483e-07
-3.43903e-06
-1.56787e-07
-3.20512e-06
-4.64331e-07
-2.83469e-06
-7.34487e-07
-2.35849e-06
-9.41869e-07
-1.81865e-06
-1.06263e-06
-1.26656e-06
-1.07693e-06
-7.58848e-07
-9.72969e-07
-3.51148e-07
-7.52667e-07
-8.93763e-08
-4.40567e-07
-1.06445e-07
-1.43181e-07
2.52051e-07
-5.21939e-07
8.22246e-07
-1.07933e-06
1.31045e-06
-1.74905e-06
1.63979e-06
-2.46081e-06
1.78368e-06
-3.14688e-06
1.74375e-06
-3.74727e-06
1.53943e-06
-4.21303e-06
1.20075e-06
-4.5082e-06
7.63235e-07
-4.61066e-06
2.64943e-07
-4.51255e-06
-2.54898e-07
-4.22051e-06
-7.56371e-07
-3.75582e-06
-1.19918e-06
-3.15423e-06
-1.54345e-06
-2.46522e-06
-1.75164e-06
-1.74996e-06
-1.79219e-06
-1.07757e-06
-1.64536e-06
-5.19369e-07
-1.31086e-06
-1.4171e-07
-8.18226e-07
-2.48155e-07
-1.91553e-07
4.43604e-07
-6.82729e-07
1.31342e-06
-1.38708e-06
2.0148e-06
-2.21547e-06
2.46818e-06
-3.08102e-06
2.64923e-06
-3.90442e-06
2.56716e-06
-4.61797e-06
2.25298e-06
-5.16786e-06
1.75063e-06
-5.51518e-06
1.11056e-06
-5.63624e-06
3.86003e-07
-5.52252e-06
-3.68615e-07
-5.18083e-06
-1.09806e-06
-4.63361e-06
-1.74641e-06
-3.91926e-06
-2.2578e-06
-3.09211e-06
-2.57878e-06
-2.22131e-06
-2.66299e-06
-1.3881e-06
-2.47857e-06
-6.81118e-07
-2.01785e-06
-1.90098e-07
-1.30925e-06
-4.38253e-07
-2.38597e-07
6.82201e-07
-8.41821e-07
1.91665e-06
-1.69314e-06
2.86612e-06
-2.67851e-06
3.45356e-06
-3.69317e-06
3.66389e-06
-4.64645e-06
3.52044e-06
-5.46436e-06
3.07089e-06
-6.09027e-06
2.37653e-06
-6.48436e-06
1.50465e-06
-6.62273e-06
5.24371e-07
-6.49662e-06
-4.94721e-07
-6.11236e-06
-1.48232e-06
-5.49195e-06
-2.36681e-06
-4.67429e-06
-3.07547e-06
-3.71637e-06
-3.5367e-06
-2.69391e-06
-3.68545e-06
-1.70024e-06
-3.47225e-06
-8.42921e-07
-2.87516e-06
-2.37665e-07
-1.9145e-06
-6.75918e-07
-2.87282e-07
9.69483e-07
-1.00601e-06
2.63537e-06
-2.00691e-06
3.86702e-06
-3.14854e-06
4.59519e-06
-4.30723e-06
4.82258e-06
-5.38166e-06
4.59486e-06
-6.29354e-06
3.98276e-06
-6.98593e-06
3.06893e-06
-7.42047e-06
1.93919e-06
-7.57463e-06
6.78526e-07
-7.43992e-06
-6.29425e-07
-7.02148e-06
-1.90077e-06
-6.33905e-06
-3.04924e-06
-5.42942e-06
-3.98509e-06
-4.34958e-06
-4.61655e-06
-3.1797e-06
-4.85533e-06
-2.02467e-06
-4.62728e-06
-1.0124e-06
-3.88743e-06
-2.87679e-07
-2.63922e-06
-9.63596e-07
-3.40395e-07
1.30988e-06
-1.1817e-06
3.47667e-06
-2.33623e-06
5.02155e-06
-3.63166e-06
5.89061e-06
-4.92482e-06
6.11575e-06
-6.1056e-06
5.77564e-06
-7.09475e-06
4.97191e-06
-7.83872e-06
3.81291e-06
-8.30379e-06
2.40426e-06
-8.47095e-06
8.45686e-07
-8.33271e-06
-7.67662e-07
-7.89216e-06
-2.34132e-06
-7.1645e-06
-3.7769e-06
-6.18094e-06
-4.96865e-06
-4.99444e-06
-5.80305e-06
-3.68613e-06
-6.16364e-06
-2.37051e-06
-5.94289e-06
-1.19683e-06
-5.06111e-06
-3.43257e-07
-3.4928e-06
-1.30685e-06
-4.00686e-07
1.71056e-06
-1.37471e-06
4.45069e-06
-2.68637e-06
6.33321e-06
-4.12768e-06
7.33192e-06
-5.53633e-06
7.5244e-06
-6.79726e-06
7.03657e-06
-7.8357e-06
6.01034e-06
-8.60695e-06
4.58416e-06
-9.08639e-06
2.88369e-06
-9.26141e-06
1.02071e-06
-9.12654e-06
-9.02534e-07
-8.68187e-06
-2.78599e-06
-7.93514e-06
-4.52364e-06
-6.90729e-06
-5.9965e-06
-5.64139e-06
-7.06895e-06
-4.21359e-06
-7.59144e-06
-2.74393e-06
-7.41256e-06
-1.40282e-06
-6.40222e-06
-4.07497e-07
-4.48812e-06
-1.71435e-06
-4.71441e-07
2.18201e-06
-1.59085e-06
5.5701e-06
-3.05958e-06
7.80193e-06
-4.62812e-06
8.90047e-06
-6.1174e-06
9.01369e-06
-7.41445e-06
8.33362e-06
-8.45737e-06
7.05326e-06
-9.21802e-06
5.34482e-06
-9.68672e-06
3.35239e-06
-9.86091e-06
1.19491e-06
-9.7385e-06
-1.02494e-06
-9.31562e-06
-3.20887e-06
-8.58907e-06
-5.25019e-06
-7.5636e-06
-7.02197e-06
-6.26419e-06
-8.36836e-06
-4.75282e-06
-9.10281e-06
-3.14729e-06
-9.01809e-06
-1.63669e-06
-7.91281e-06
-4.84012e-07
-5.6408e-06
-2.19836e-06
-5.57511e-07
2.73952e-06
-1.83699e-06
6.84958e-06
-3.45443e-06
9.41938e-06
-5.11305e-06
1.05591e-05
-6.62354e-06
1.05242e-05
-7.88702e-06
9.5971e-06
-8.86679e-06
8.03303e-06
-9.56126e-06
6.03929e-06
-9.98266e-06
3.77379e-06
-1.01426e-05
1.35489e-06
-1.00441e-05
-1.1235e-06
-9.67833e-06
-3.57461e-06
-9.02773e-06
-5.90079e-06
-8.07397e-06
-7.97574e-06
-6.81347e-06
-9.62886e-06
-5.2807e-06
-1.06356e-05
-3.57786e-06
-1.07209e-05
-1.90525e-06
-9.58542e-06
-5.77898e-07
-6.96816e-06
-2.77626e-06
-6.67028e-07
3.40654e-06
-2.12219e-06
8.30475e-06
-3.86363e-06
1.11608e-05
-5.54478e-06
1.22402e-05
-6.98102e-06
1.19604e-05
-8.10688e-06
1.0723e-05
-8.92749e-06
8.85365e-06
-9.47948e-06
6.59128e-06
-9.80412e-06
4.09842e-06
-9.931e-06
1.48177e-06
-9.86957e-06
-1.18494e-06
-9.60609e-06
-3.83809e-06
-9.10569e-06
-6.40118e-06
-8.32049e-06
-8.76094e-06
-7.2065e-06
-1.07428e-05
-5.75279e-06
-1.20893e-05
-4.0246e-06
-1.24491e-05
-2.21645e-06
-1.13936e-05
-6.97366e-07
-8.48724e-06
-3.47363e-06
-8.14184e-07
4.22073e-06
-2.45788e-06
9.94845e-06
-4.26725e-06
1.29702e-05
-5.85504e-06
1.3828e-05
-7.07125e-06
1.31766e-05
-7.91285e-06
1.15646e-05
-8.44704e-06
9.38783e-06
-8.7598e-06
6.90405e-06
-8.92634e-06
4.26496e-06
-8.99605e-06
1.55148e-06
-8.98578e-06
-1.1952e-06
-8.87741e-06
-3.94647e-06
-8.61852e-06
-6.66007e-06
-8.12794e-06
-9.25151e-06
-7.31062e-06
-1.15602e-05
-6.08913e-06
-1.33108e-05
-4.46011e-06
-1.40781e-05
-2.57874e-06
-1.3275e-05
-8.56337e-07
-1.02096e-05
-4.32996e-06
-1.02312e-06
5.24385e-06
-2.85353e-06
1.17789e-05
-4.61508e-06
1.47317e-05
-5.91878e-06
1.51317e-05
-6.70369e-06
1.39615e-05
-7.06846e-06
1.19293e-05
-7.16203e-06
9.48141e-06
-7.12548e-06
6.8675e-06
-7.06672e-06
4.2062e-06
-7.05234e-06
1.5371e-06
-7.10586e-06
-1.14169e-06
-7.2069e-06
-3.84543e-06
-7.28978e-06
-6.5772e-06
-7.24311e-06
-9.29818e-06
-6.91666e-06
-1.18866e-05
-6.14721e-06
-1.40802e-05
-4.82143e-06
-1.54039e-05
-2.99548e-06
-1.51009e-05
-1.07796e-06
-1.21272e-05
-5.40793e-06
-1.33011e-06
6.57395e-06
-3.29657e-06
1.37453e-05
-4.78302e-06
1.62182e-05
-5.50252e-06
1.58512e-05
-5.571e-06
1.403e-05
-5.23115e-06
1.15895e-05
-4.7224e-06
8.97266e-06
-4.23255e-06
6.37764e-06
-3.88949e-06
3.86314e-06
-3.76713e-06
1.41474e-06
-3.8921e-06
-1.01672e-06
-4.24586e-06
-3.49167e-06
-4.7604e-06
-6.06266e-06
-5.30904e-06
-8.74954e-06
-5.69775e-06
-1.14979e-05
-5.6716e-06
-1.41064e-05
-4.96513e-06
-1.61104e-05
-3.44269e-06
-1.66233e-05
-1.3958e-06
-1.4174e-05
-6.80373e-06
-1.76839e-06
8.34235e-06
-3.68314e-06
1.56601e-05
-4.47191e-06
1.70069e-05
-4.16908e-06
1.55484e-05
-3.18122e-06
1.30422e-05
-1.91629e-06
1.03245e-05
-6.81793e-07
7.73816e-06
3.21412e-07
5.37444e-06
9.74638e-07
3.20992e-06
1.21547e-06
1.17391e-06
1.02102e-06
-8.22259e-07
4.0252e-07
-2.87318e-06
-5.88089e-07
-5.07205e-06
-1.83942e-06
-7.49821e-06
-3.15124e-06
-1.01861e-05
-4.20515e-06
-1.30525e-05
-4.56763e-06
-1.57479e-05
-3.79691e-06
-1.73941e-05
-1.83611e-06
-1.61348e-05
-8.63984e-06
-2.28916e-06
1.06315e-05
-3.62334e-06
1.69943e-05
-2.99335e-06
1.6377e-05
-1.11761e-06
1.36726e-05
1.22981e-06
1.06947e-05
3.53102e-06
8.02334e-06
5.49154e-06
5.77763e-06
6.96454e-06
3.90145e-06
7.88508e-06
2.28937e-06
8.22704e-06
8.31947e-07
7.98026e-06
-5.7548e-07
7.14333e-06
-2.03625e-06
5.73023e-06
-3.65895e-06
3.79351e-06
-5.56148e-06
1.47011e-06
-7.8627e-06
-9.46628e-07
-1.06357e-05
-2.9219e-06
-1.37726e-05
-3.64124e-06
-1.66747e-05
-2.33411e-06
-1.7442e-05
-1.0974e-05
-2.50734e-06
1.31389e-05
-1.96171e-06
1.64486e-05
1.14411e-06
1.32711e-05
5.05129e-06
9.76546e-06
8.78058e-06
6.96545e-06
1.19254e-05
4.87853e-06
1.43605e-05
3.34257e-06
1.60808e-05
2.18108e-06
1.71183e-05
1.2519e-06
1.75017e-05
4.48574e-07
1.724e-05
-3.13826e-07
1.63175e-05
-1.11377e-06
1.46966e-05
-2.03805e-06
1.23329e-05
-3.19775e-06
9.21474e-06
-4.74453e-06
5.45104e-06
-6.87203e-06
1.44377e-06
-9.76536e-06
-1.80507e-06
-1.34259e-05
-2.47781e-06
-1.67692e-05
-1.34518e-05
-6.0536e-07
1.37442e-05
4.5794e-06
1.12639e-05
1.09957e-05
6.85488e-06
1.65659e-05
4.19518e-06
2.08998e-05
2.63161e-06
2.40999e-05
1.67842e-06
2.63664e-05
1.07603e-06
2.78763e-05
6.71242e-07
2.87544e-05
3.73814e-07
2.90731e-05
1.29812e-07
2.88564e-05
-9.71054e-08
2.80808e-05
-3.38139e-07
2.66724e-05
-6.29633e-07
2.45005e-05
-1.02589e-06
2.13752e-05
-1.6192e-06
1.70735e-05
-2.57041e-06
1.14661e-05
-4.15787e-06
4.92927e-06
-6.88907e-06
-4.42507e-07
-1.13975e-05
-1.38943e-05
1.37442e-05
2.50081e-05
3.1863e-05
3.60581e-05
3.86897e-05
4.03682e-05
4.14442e-05
4.21154e-05
4.24892e-05
4.26191e-05
4.2522e-05
4.21838e-05
4.15542e-05
4.05283e-05
3.89091e-05
3.63387e-05
3.21808e-05
2.52917e-05
1.38943e-05
)
;

boundaryField
{
    movingWall
    {
        type            calculated;
        value           uniform 0;
    }
    fixedWalls
    {
        type            calculated;
        value           uniform 0;
    }
    frontAndBack
    {
        type            empty;
        value           nonuniform 0();
    }
}


// ************************************************************************* //
