/*--------------------------------*- C++ -*----------------------------------*\
  =========                 |
  \\      /  F ield         | OpenFOAM: The Open Source CFD Toolbox
   \\    /   O peration     | Website:  https://openfoam.org
    \\  /    A nd           | Version:  6
     \\/     M anipulation  |
\*---------------------------------------------------------------------------*/
FoamFile
{
    version     2.0;
    format      ascii;
    class       volScalarField;
    location    "0.025";
    object      p;
}
// * * * * * * * * * * * * * * * * * * * * * * * * * * * * * * * * * * * * * //

dimensions      [0 2 -2 0 0 0 0];

internalField   nonuniform List<scalar> 
400
(
9.17538e-07
-0.034765
-0.0780445
-0.111427
-0.123906
-0.110544
-0.0709704
-0.00810874
0.0728709
0.16534
0.261831
0.354566
0.43598
0.499281
0.539135
0.552519
0.539816
0.506103
0.4626
0.427846
0.0344443
-0.00126963
-0.035238
-0.058263
-0.0649083
-0.0517021
-0.0181993
0.033489
0.0994393
0.174492
0.252746
0.328026
0.394347
0.446415
0.480166
0.493402
0.486575
0.463265
0.429102
0.393428
0.0802268
0.0307456
-0.00602193
-0.0272758
-0.0326811
-0.0203338
0.00973003
0.0554619
0.11342
0.179182
0.247711
0.31373
0.372111
0.418285
0.448653
0.461062
0.45547
0.433889
0.396869
0.347418
0.122433
0.0539582
0.00821541
-0.0160369
-0.0226364
-0.0110657
0.0179211
0.0618984
0.117398
0.180214
0.245654
0.308817
0.364898
0.409503
0.43896
0.450692
0.44391
0.419243
0.373115
0.304582
0.151341
0.0627602
0.00625289
-0.0222859
-0.0302662
-0.018405
0.0117486
0.0571935
0.114181
0.17845
0.245371
0.310137
0.367975
0.414373
0.445303
0.457539
0.449445
0.420403
0.363313
0.27447
0.159992
0.050847
-0.0169052
-0.0496076
-0.0579418
-0.0438038
-0.00961973
0.0408778
0.103472
0.173648
0.246643
0.317542
0.381394
0.433356
0.468824
0.483729
0.47547
0.442216
0.373619
0.263852
0.142341
0.0119579
-0.0668708
-0.102551
-0.109115
-0.0897438
-0.0478903
0.0118178
0.084543
0.165383
0.249318
0.331205
0.405784
0.467721
0.51165
0.532447
0.526352
0.49017
0.410182
0.278608
0.0919084
-0.0607836
-0.149925
-0.186255
-0.187683
-0.159003
-0.104944
-0.0312161
0.0566082
0.153179
0.253196
0.351267
0.441787
0.518848
0.576164
0.607318
0.607073
0.570484
0.479853
0.325147
0.000672144
-0.175792
-0.273712
-0.306924
-0.298302
-0.25485
-0.18295
-0.0896075
0.0188036
0.136524
0.258065
0.377897
0.490155
0.588369
0.665231
0.712747
0.723749
0.690848
0.591164
0.411586
-0.142003
-0.343951
-0.447808
-0.472032
-0.446308
-0.380805
-0.28407
-0.164617
-0.0296015
0.114983
0.263714
0.411203
0.551574
0.67796
0.782013
0.853887
0.883868
0.861049
0.755339
0.548919
-0.350814
-0.579839
-0.684378
-0.690402
-0.637421
-0.540155
-0.40993
-0.256915
-0.0888567
0.0883926
0.269953
0.451082
0.626374
0.78895
0.929597
1.03642
1.09644
1.09369
0.987607
0.752591
-0.646962
-0.903567
-0.998961
-0.972133
-0.87716
-0.735164
-0.560835
-0.365914
-0.158252
0.0571317
0.276665
0.497047
0.714136
0.921767
1.11038
1.2661
1.37201
1.40505
1.30915
1.04511
-1.06283
-1.34371
-1.41134
-1.3281
-1.1697
-0.965781
-0.734609
-0.488865
-0.235489
0.0224583
0.28385
0.547973
0.81313
1.07508
1.32502
1.54778
1.72228
1.81606
1.75015
1.46094
-1.65168
-1.94203
-1.94599
-1.76829
-1.51559
-1.22748
-0.924864
-0.619629
-0.315924
-0.0131321
0.291611
0.601679
0.919426
1.24437
1.57053
1.88334
2.15857
2.35282
2.35466
2.05657
-2.50761
-2.76041
-2.63045
-2.2973
-1.9071
-1.50756
-1.11847
-0.747131
-0.391754
-0.0456457
0.29994
0.654196
1.02548
1.41961
1.83679
2.26717
2.68738
3.04499
3.18754
2.93077
-3.79974
-3.88688
-3.48924
-2.90661
-2.3219
-1.78093
-1.29323
-0.85435
-0.451775
-0.0697559
0.308288
0.699008
1.11876
1.58271
2.10227
2.6799
3.30275
3.9196
4.34012
4.25874
-5.83222
-5.43558
-4.53237
-3.56805
-2.72032
-2.00976
-1.41907
-0.920113
-0.483061
-0.0799733
0.315055
0.727129
1.18207
1.70756
2.33291
3.0852
3.97935
4.98919
5.92955
6.351
-9.28472
-7.55089
-5.69685
-4.18856
-3.0187
-2.12965
-1.45177
-0.916953
-0.47087
-0.0715311
0.316024
0.724531
1.18897
1.75134
2.46596
3.40107
4.62563
6.19285
8.10486
9.8955
-15.9314
-10.3233
-6.5661
-4.38403
-2.94843
-1.96865
-1.28708
-0.785353
-0.38552
-0.0364929
0.300008
0.65856
1.07749
1.60796
2.32816
3.35769
4.85673
7.11563
10.9622
16.6722
-27.0777
-12.9901
-6.27698
-3.58869
-2.19667
-1.36892
-0.848743
-0.490041
-0.212906
0.0269573
0.259162
0.509436
0.807347
1.197
1.75801
2.63795
4.101
6.88642
13.7135
27.9159
)
;

boundaryField
{
    movingWall
    {
        type            zeroGradient;
    }
    fixedWalls
    {
        type            zeroGradient;
    }
    frontAndBack
    {
        type            empty;
    }
}


// ************************************************************************* //
