/*--------------------------------*- C++ -*----------------------------------*\
  =========                 |
  \\      /  F ield         | OpenFOAM: The Open Source CFD Toolbox
   \\    /   O peration     | Website:  https://openfoam.org
    \\  /    A nd           | Version:  6
     \\/     M anipulation  |
\*---------------------------------------------------------------------------*/
FoamFile
{
    version     2.0;
    format      ascii;
    class       volScalarField;
    location    "0.245";
    object      p;
}
// * * * * * * * * * * * * * * * * * * * * * * * * * * * * * * * * * * * * * //

dimensions      [0 2 -2 0 0 0 0];

internalField   nonuniform List<scalar> 
400
(
-4.98255e-08
-0.000299675
-0.000573615
-0.000682413
-0.000579809
-0.000253324
0.000293785
0.00104987
0.00199554
0.00309933
0.00431174
0.00556113
0.00675432
0.0077847
0.00854931
0.00897366
0.0090389
0.00880181
0.00840117
0.00805976
0.00029904
-1.11049e-05
-0.000211098
-0.000247031
-0.000111076
0.000206881
0.000708531
0.00138751
0.00222938
0.00320784
0.00428011
0.00538403
0.00643912
0.00735409
0.00804189
0.0084413
0.00853994
0.00838575
0.00806936
0.00772582
0.000586772
0.000167099
-4.66069e-05
-6.44418e-05
7.81818e-05
0.00038248
0.000850418
0.0014793
0.0022605
0.00317448
0.00418534
0.00523695
0.00625293
0.00714297
0.00781751
0.00821008
0.00830265
0.00813517
0.0077679
0.00729685
0.000704157
0.000150307
-0.000115847
-0.000147352
-1.63184e-05
0.000269586
0.000711797
0.00131127
0.00206604
0.00296442
0.00397751
0.005053
0.0061127
0.00705703
0.00777984
0.00819455
0.00826706
0.00803015
0.00753322
0.00687632
0.000559168
-0.000121348
-0.000447075
-0.000503532
-0.000392893
-0.000129362
0.000289392
0.000869344
0.00161673
0.0025295
0.00358734
0.00474233
0.00591242
0.00698259
0.00781916
0.00830116
0.00836578
0.0080347
0.00735819
0.00647047
8.24935e-05
-0.000715883
-0.00110268
-0.0011905
-0.00110721
-0.000871615
-0.000478934
8.34707e-05
0.000832188
0.00177775
0.0029123
0.00419607
0.00554506
0.00682566
0.0078655
0.00849015
0.00858676
0.00815207
0.00723811
0.00603989
-0.000783494
-0.00169574
-0.00214561
-0.00227122
-0.00222469
-0.00202869
-0.00167518
-0.00114345
-0.000404065
0.000570581
0.00179208
0.00323813
0.00483178
0.00642424
0.00779501
0.00869011
0.00890958
0.00839115
0.00716888
0.00552355
-0.00209155
-0.00311898
-0.00363605
-0.00380822
-0.00381359
-0.00367989
-0.00339635
-0.00293388
-0.00224814
-0.00128908
-1.49735e-05
0.00158651
0.00346716
0.00548108
0.00735986
0.00873874
0.0092696
0.00875898
0.00716094
0.00485967
-0.00389399
-0.00504299
-0.00563365
-0.00586395
-0.00594345
-0.00590877
-0.00574929
-0.00542971
-0.00489106
-0.00405673
-0.00284205
-0.00117416
0.000967866
0.00348707
0.00609469
0.00829223
0.0094945
0.00924043
0.00725707
0.00401427
-0.00624478
-0.00752635
-0.00819666
-0.00849567
-0.00867516
-0.00878785
-0.00882961
-0.00876521
-0.00852652
-0.00801148
-0.00708242
-0.00557464
-0.003337
-0.000330104
0.00322015
0.00670179
0.0091939
0.00974235
0.00754678
0.00303256
-0.00920191
-0.0106314
-0.0113797
-0.0117461
-0.012043
-0.0123509
-0.012682
-0.0130128
-0.0132787
-0.0133631
-0.0130753
-0.0121321
-0.0101795
-0.00691298
-0.00233252
0.00295678
0.00765547
0.0100144
0.00817852
0.00214911
-0.0128351
-0.0144309
-0.0152323
-0.0156304
-0.0160296
-0.0165539
-0.0172442
-0.0181032
-0.0190896
-0.020094
-0.0208878
-0.0210603
-0.0199949
-0.0169811
-0.011563
-0.00407471
0.00393333
0.00964761
0.0094055
0.00202769
-0.0172477
-0.0190248
-0.0197994
-0.0201206
-0.0205368
-0.0212329
-0.0222876
-0.0237431
-0.0256012
-0.0277851
-0.0300547
-0.0318873
-0.0323833
-0.0303321
-0.0246009
-0.0148835
-0.00259609
0.00837471
0.0117946
0.00421587
-0.022632
-0.0245759
-0.0251253
-0.0251276
-0.0253579
-0.0260724
-0.0273848
-0.0293794
-0.0321097
-0.0355464
-0.0394591
-0.04324
-0.0457341
-0.0452307
-0.0398205
-0.0282408
-0.0112057
0.00680816
0.0167335
0.0117363
-0.0294002
-0.0313773
-0.0312532
-0.030476
-0.0301577
-0.0306044
-0.0319372
-0.0342648
-0.0376788
-0.042186
-0.0475595
-0.0531173
-0.057494
-0.0585616
-0.0537122
-0.0406567
-0.0189475
0.00729291
0.027004
0.02931
-0.0384825
-0.0399629
-0.0381903
-0.0358519
-0.0344557
-0.0342425
-0.0352715
-0.0376316
-0.0414111
-0.0466065
-0.0529482
-0.0596497
-0.0651486
-0.0669853
-0.0620237
-0.0471563
-0.0207419
0.0143569
0.047065
0.0629023
-0.0520822
-0.0512844
-0.0458462
-0.0407775
-0.0376608
-0.0363769
-0.0367999
-0.0389233
-0.04276
-0.0482194
-0.0549093
-0.0618685
-0.0672945
-0.068404
-0.0616162
-0.0432184
-0.0106799
0.0347112
0.0840741
0.121031
-0.0762835
-0.0668671
-0.0538772
-0.0445387
-0.0390151
-0.0363488
-0.0360427
-0.0378582
-0.0416204
-0.047059
-0.0535818
-0.0599886
-0.0641889
-0.0630296
-0.0524003
-0.0278063
0.0143889
0.0749715
0.149696
0.222387
-0.130088
-0.0869135
-0.0577191
-0.0428864
-0.0352738
-0.0317726
-0.0313474
-0.0333987
-0.0374535
-0.0430229
-0.0493265
-0.054971
-0.0576537
-0.0539381
-0.0391795
-0.0076549
0.0469598
0.130819
0.250494
0.397103
-0.255231
-0.102603
-0.0421654
-0.0263773
-0.0209992
-0.0192829
-0.0205868
-0.0242454
-0.0295825
-0.0360231
-0.042768
-0.0484244
-0.0507076
-0.0461973
-0.030121
0.0040984
0.0661245
0.17259
0.350403
0.621028
)
;

boundaryField
{
    movingWall
    {
        type            zeroGradient;
    }
    fixedWalls
    {
        type            zeroGradient;
    }
    frontAndBack
    {
        type            empty;
    }
}


// ************************************************************************* //
