/*--------------------------------*- C++ -*----------------------------------*\
  =========                 |
  \\      /  F ield         | OpenFOAM: The Open Source CFD Toolbox
   \\    /   O peration     | Website:  https://openfoam.org
    \\  /    A nd           | Version:  6
     \\/     M anipulation  |
\*---------------------------------------------------------------------------*/
FoamFile
{
    version     2.0;
    format      ascii;
    class       surfaceScalarField;
    location    "0.07";
    object      phi;
}
// * * * * * * * * * * * * * * * * * * * * * * * * * * * * * * * * * * * * * //

dimensions      [0 3 -1 0 0 0 0];

internalField   nonuniform List<scalar> 
760
(
1.48155e-08
-1.48364e-08
-2.06872e-08
3.55027e-08
-1.1257e-07
9.18827e-08
-2.44654e-07
1.32084e-07
-3.96821e-07
1.52167e-07
-5.49667e-07
1.52846e-07
-6.86399e-07
1.36732e-07
-7.93708e-07
1.07309e-07
-8.62047e-07
6.83388e-08
-8.8566e-07
2.3613e-08
-8.62563e-07
-2.30975e-08
-7.94551e-07
-6.80108e-08
-6.87264e-07
-1.07286e-07
-5.50247e-07
-1.37017e-07
-3.9693e-07
-1.53317e-07
-2.44313e-07
-1.52618e-07
-1.12003e-07
-1.32311e-07
-2.02097e-08
-9.17934e-08
1.50042e-08
-3.52139e-08
1.50044e-08
-3.28254e-08
1.7989e-08
-1.7737e-07
1.80048e-07
-4.3077e-07
3.45282e-07
-7.62917e-07
4.64232e-07
-1.13364e-06
5.22887e-07
-1.50158e-06
5.20786e-07
-1.8293e-06
4.64459e-07
-2.08616e-06
3.64162e-07
-2.24964e-06
2.31823e-07
-2.30603e-06
8.00012e-08
-2.2506e-06
-7.85292e-08
-2.08773e-06
-2.30881e-07
-1.83093e-06
-3.64086e-07
-1.50269e-06
-4.65259e-07
-1.13388e-06
-5.22123e-07
-7.62309e-07
-5.24187e-07
-4.29698e-07
-4.64921e-07
-1.76409e-07
-3.45083e-07
-3.23938e-08
-1.79229e-07
-1.73894e-08
-9.0293e-08
1.08282e-07
-3.53043e-07
4.42797e-07
-7.60755e-07
7.52994e-07
-1.26734e-06
9.70814e-07
-1.81762e-06
1.07317e-06
-2.35574e-06
1.0589e-06
-2.83101e-06
9.39733e-07
-3.20169e-06
7.34844e-07
-3.43699e-06
4.67119e-07
-3.51804e-06
1.61055e-07
-3.43836e-06
-1.58208e-07
-3.20399e-06
-4.65254e-07
-2.83348e-06
-7.34596e-07
-2.35759e-06
-9.41147e-07
-1.81834e-06
-1.06138e-06
-1.26685e-06
-1.07568e-06
-7.59505e-07
-9.72262e-07
-3.51791e-07
-7.52798e-07
-8.96809e-08
-4.41339e-07
-1.07071e-07
-1.42818e-07
2.511e-07
-5.21315e-07
8.21295e-07
-1.07892e-06
1.31059e-06
-1.7493e-06
1.6412e-06
-2.46193e-06
1.7858e-06
-3.14873e-06
1.7457e-06
-3.74941e-06
1.54041e-06
-4.2149e-06
1.20034e-06
-4.50928e-06
7.61505e-07
-4.61065e-06
2.62426e-07
-4.51146e-06
-2.57404e-07
-4.21864e-06
-7.58073e-07
-3.75368e-06
-1.19955e-06
-3.1524e-06
-1.54242e-06
-2.46414e-06
-1.74965e-06
-1.74976e-06
-1.79006e-06
-1.07803e-06
-1.64399e-06
-5.20029e-07
-1.3108e-06
-1.42082e-07
-8.19286e-07
-2.49153e-07
-1.91195e-07
4.42295e-07
-6.82337e-07
1.31244e-06
-1.38734e-06
2.0156e-06
-2.21692e-06
2.47078e-06
-3.08376e-06
2.65265e-06
-3.90809e-06
2.57003e-06
-4.62183e-06
2.25415e-06
-5.17105e-06
1.74955e-06
-5.51696e-06
1.10742e-06
-5.63619e-06
3.81651e-07
-5.52063e-06
-3.72958e-07
-5.17753e-06
-1.10117e-06
-4.62965e-06
-1.74744e-06
-3.91551e-06
-2.25656e-06
-3.08931e-06
-2.57584e-06
-2.21984e-06
-2.65953e-06
-1.38785e-06
-2.47598e-06
-6.81531e-07
-2.01712e-06
-1.90467e-07
-1.31035e-06
-4.3962e-07
-2.38367e-07
6.80662e-07
-8.4209e-07
1.91616e-06
-1.69488e-06
2.86839e-06
-2.68229e-06
3.45819e-06
-3.69887e-06
3.66922e-06
-4.65329e-06
3.52445e-06
-5.47113e-06
3.07199e-06
-6.09567e-06
2.37408e-06
-6.48731e-06
1.49906e-06
-6.62262e-06
5.16957e-07
-6.49344e-06
-5.02132e-07
-6.10671e-06
-1.4879e-06
-5.48493e-06
-2.36922e-06
-4.66721e-06
-3.07428e-06
-3.71047e-06
-3.53258e-06
-2.68999e-06
-3.68001e-06
-1.69843e-06
-3.46754e-06
-8.42639e-07
-2.87291e-06
-2.37901e-07
-1.91509e-06
-6.77521e-07
-2.87379e-07
9.68041e-07
-1.00757e-06
2.63635e-06
-2.01126e-06
3.87207e-06
-3.15618e-06
4.60312e-06
-4.31762e-06
4.83067e-06
-5.39338e-06
4.60021e-06
-6.30471e-06
3.98331e-06
-6.99463e-06
3.06401e-06
-7.42517e-06
1.9296e-06
-7.57447e-06
6.66257e-07
-7.43489e-06
-6.41707e-07
-7.0124e-06
-1.91039e-06
-6.32746e-06
-3.05416e-06
-5.41726e-06
-3.98448e-06
-4.33879e-06
-4.61105e-06
-3.17176e-06
-4.84704e-06
-2.02014e-06
-4.61916e-06
-1.01077e-06
-3.88228e-06
-2.87577e-07
-2.63828e-06
-9.65097e-07
-3.41098e-07
1.30914e-06
-1.1854e-06
3.48066e-06
-2.34463e-06
5.0313e-06
-3.64501e-06
5.9035e-06
-4.94191e-06
6.12757e-06
-6.12412e-06
5.78242e-06
-7.11191e-06
4.9711e-06
-7.85185e-06
3.80396e-06
-8.31084e-06
2.38858e-06
-8.47078e-06
8.26204e-07
-8.3253e-06
-7.87192e-07
-7.87858e-06
-2.35711e-06
-7.14678e-06
-3.78596e-06
-6.16179e-06
-4.96947e-06
-4.97672e-06
-5.79612e-06
-3.67225e-06
-6.15152e-06
-2.36177e-06
-5.92964e-06
-1.19297e-06
-5.05108e-06
-3.4253e-07
-3.48872e-06
-1.30763e-06
-4.02363e-07
1.7115e-06
-1.3816e-06
4.4599e-06
-2.70049e-06
6.35018e-06
-4.14878e-06
7.35179e-06
-5.56218e-06
7.54097e-06
-6.82439e-06
7.04463e-06
-7.86027e-06
6.00698e-06
-8.6255e-06
4.56919e-06
-9.09632e-06
2.8594e-06
-9.26134e-06
9.91219e-07
-9.1164e-06
-9.32131e-07
-8.66296e-06
-2.81055e-06
-7.90999e-06
-4.53893e-06
-6.87941e-06
-6.00005e-06
-5.61471e-06
-7.06082e-06
-4.19174e-06
-7.57449e-06
-2.72927e-06
-7.39211e-06
-1.39566e-06
-6.38469e-06
-4.05769e-07
-4.47861e-06
-1.7134e-06
-4.74539e-07
2.18604e-06
-1.60211e-06
5.58747e-06
-3.08113e-06
7.8292e-06
-4.65881e-06
8.92948e-06
-6.15362e-06
9.03578e-06
-7.45137e-06
8.34237e-06
-8.4901e-06
7.0457e-06
-9.2424e-06
5.32149e-06
-9.69976e-06
3.31677e-06
-9.86106e-06
1.15252e-06
-9.72566e-06
-1.06753e-06
-9.2912e-06
-3.24501e-06
-8.55596e-06
-5.27417e-06
-7.52595e-06
-7.03006e-06
-6.22702e-06
-8.35975e-06
-4.72117e-06
-9.08034e-06
-3.12498e-06
-8.98829e-06
-1.62503e-06
-7.88464e-06
-4.80825e-07
-5.62282e-06
-2.19422e-06
-5.6254e-07
2.74858e-06
-1.85378e-06
6.8787e-06
-3.48482e-06
9.46024e-06
-5.15442e-06
1.05991e-05
-6.67058e-06
1.05519e-05
-7.93354e-06
9.60533e-06
-8.90708e-06
8.01924e-06
-9.59082e-06
6.00523e-06
-9.99847e-06
3.72442e-06
-1.01432e-05
1.2972e-06
-1.00292e-05
-1.1815e-06
-9.64937e-06
-3.62483e-06
-8.98756e-06
-5.93598e-06
-8.02703e-06
-7.99059e-06
-6.76556e-06
-9.62121e-06
-5.23826e-06
-1.06076e-05
-3.54653e-06
-1.068e-05
-1.88791e-06
-9.54327e-06
-5.72734e-07
-6.93799e-06
-2.76696e-06
-6.74518e-07
3.4231e-06
-2.1454e-06
8.34958e-06
-3.90335e-06
1.12182e-05
-5.5963e-06
1.2292e-05
-7.03715e-06
1.19928e-05
-8.16039e-06
1.07286e-05
-8.97251e-06
8.83136e-06
-9.5119e-06
6.54462e-06
-9.82143e-06
4.03395e-06
-9.93202e-06
1.40779e-06
-9.85416e-06
-1.25936e-06
-9.57521e-06
-3.90378e-06
-9.06163e-06
-6.44956e-06
-8.26722e-06
-8.78501e-06
-7.14991e-06
-1.07385e-05
-5.70032e-06
-1.20572e-05
-3.98384e-06
-1.23965e-05
-2.19253e-06
-1.13346e-05
-6.89688e-07
-8.44083e-06
-3.45664e-06
-8.24603e-07
4.2477e-06
-2.48769e-06
1.00127e-05
-4.31499e-06
1.30455e-05
-5.91331e-06
1.38904e-05
-7.13125e-06
1.32107e-05
-7.96725e-06
1.15646e-05
-8.49092e-06
9.35503e-06
-8.7905e-06
6.84419e-06
-8.94265e-06
4.18611e-06
-8.99755e-06
1.46269e-06
-8.97238e-06
-1.28453e-06
-8.84931e-06
-4.02684e-06
-8.57668e-06
-6.72219e-06
-8.07482e-06
-9.28687e-06
-7.25097e-06
-1.15624e-05
-6.03038e-06
-1.32778e-05
-4.41144e-06
-1.40154e-05
-2.54813e-06
-1.31979e-05
-8.45682e-07
-1.01433e-05
-4.30233e-06
-1.0367e-06
5.2844e-06
-2.88864e-06
1.18646e-05
-4.66641e-06
1.48232e-05
-5.97607e-06
1.52e-05
-6.75768e-06
1.39923e-05
-7.11334e-06
1.19202e-05
-7.1955e-06
9.43719e-06
-7.14752e-06
6.79621e-06
-7.07824e-06
4.11683e-06
-7.0541e-06
1.43854e-06
-7.09782e-06
-1.24081e-06
-7.18824e-06
-3.93642e-06
-7.25939e-06
-6.65104e-06
-7.2007e-06
-9.34556e-06
-6.8642e-06
-1.18989e-05
-6.09032e-06
-1.40517e-05
-4.7696e-06
-1.53362e-05
-2.95963e-06
-1.50079e-05
-1.06413e-06
-1.20388e-05
-5.36645e-06
-1.34643e-06
6.63084e-06
-3.33289e-06
1.38511e-05
-4.82872e-06
1.63191e-05
-5.54561e-06
1.59169e-05
-5.60407e-06
1.40508e-05
-5.25231e-06
1.15685e-05
-4.73364e-06
8.91852e-06
-4.23752e-06
6.30009e-06
-3.89167e-06
3.77098e-06
-3.7686e-06
1.31547e-06
-3.89297e-06
-1.11643e-06
-4.24418e-06
-3.58521e-06
-4.75265e-06
-6.14257e-06
-5.29128e-06
-8.80694e-06
-5.66747e-06
-1.15227e-05
-5.63019e-06
-1.4089e-05
-4.91981e-06
-1.60465e-05
-3.40597e-06
-1.65217e-05
-1.37929e-06
-1.40655e-05
-6.74574e-06
-1.78533e-06
8.41617e-06
-3.71175e-06
1.57775e-05
-4.49664e-06
1.7104e-05
-4.17954e-06
1.55998e-05
-3.17547e-06
1.30467e-05
-1.89873e-06
1.02917e-05
-6.59691e-07
7.67948e-06
3.40774e-07
5.29963e-06
9.85636e-07
3.12612e-06
1.215e-06
1.08611e-06
1.00883e-06
-9.10268e-07
3.81342e-07
-2.95772e-06
-6.12827e-07
-5.1484e-06
-1.8603e-06
-7.55946e-06
-3.16049e-06
-1.02225e-05
-4.1976e-06
-1.30519e-05
-4.54453e-06
-1.56996e-05
-3.76866e-06
-1.72976e-05
-1.8192e-06
-1.60149e-05
-8.56494e-06
-2.30055e-06
1.07167e-05
-3.62844e-06
1.71054e-05
-2.97677e-06
1.64523e-05
-1.07646e-06
1.36995e-05
1.28849e-06
1.06818e-05
3.59581e-06
7.98441e-06
5.55109e-06
5.72421e-06
7.00972e-06
3.84099e-06
7.90978e-06
2.22607e-06
8.22809e-06
7.67799e-07
7.95738e-06
-6.39562e-07
7.09915e-06
-2.09949e-06
5.67047e-06
-3.71971e-06
3.72709e-06
-5.61609e-06
1.40866e-06
-7.90405e-06
-9.90977e-07
-1.06522e-05
-2.94107e-06
-1.37495e-05
-3.63742e-06
-1.66012e-05
-2.32304e-06
-1.73293e-05
-1.0888e-05
-2.50005e-06
1.32168e-05
-1.92315e-06
1.65285e-05
1.21806e-06
1.33111e-05
5.15052e-06
9.76704e-06
8.8891e-06
6.94319e-06
1.20281e-05
4.84545e-06
1.4446e-05
3.30627e-06
1.6142e-05
2.14501e-06
1.7151e-05
1.21708e-06
1.7504e-05
4.14766e-07
1.72119e-05
-3.47402e-07
1.62604e-05
-1.14801e-06
1.46141e-05
-2.07347e-06
1.22319e-05
-3.23384e-06
9.10624e-06
-4.7784e-06
5.35044e-06
-6.89645e-06
1.3679e-06
-9.76698e-06
-1.84483e-06
-1.33885e-05
-2.48528e-06
-1.66888e-05
-1.33733e-05
-5.63818e-07
1.37806e-05
4.66721e-06
1.12975e-05
1.11136e-05
6.86468e-06
1.66939e-05
4.18676e-06
2.10204e-05
2.61669e-06
2.42023e-05
1.66357e-06
2.64453e-05
1.06322e-06
2.79298e-05
6.60534e-07
2.87822e-05
3.64668e-07
2.90754e-05
1.2155e-07
2.88332e-05
-1.05206e-07
2.8032e-05
-3.46837e-07
2.65983e-05
-6.39727e-07
2.44026e-05
-1.03814e-06
2.12581e-05
-1.63394e-06
1.69478e-05
-2.58607e-06
1.13489e-05
-4.16809e-06
4.8422e-06
-6.88179e-06
-4.82362e-07
-1.13643e-05
-1.38556e-05
1.37806e-05
2.5078e-05
3.19427e-05
3.61295e-05
3.87462e-05
4.04097e-05
4.1473e-05
4.21335e-05
4.24982e-05
4.26197e-05
4.25145e-05
4.21677e-05
4.1528e-05
4.04898e-05
3.88559e-05
3.62698e-05
3.21017e-05
2.52199e-05
1.38556e-05
)
;

boundaryField
{
    movingWall
    {
        type            calculated;
        value           uniform 0;
    }
    fixedWalls
    {
        type            calculated;
        value           uniform 0;
    }
    frontAndBack
    {
        type            empty;
        value           nonuniform 0();
    }
}


// ************************************************************************* //
