/*--------------------------------*- C++ -*----------------------------------*\
  =========                 |
  \\      /  F ield         | OpenFOAM: The Open Source CFD Toolbox
   \\    /   O peration     | Website:  https://openfoam.org
    \\  /    A nd           | Version:  6
     \\/     M anipulation  |
\*---------------------------------------------------------------------------*/
FoamFile
{
    version     2.0;
    format      ascii;
    class       volScalarField;
    location    "0.09";
    object      p;
}
// * * * * * * * * * * * * * * * * * * * * * * * * * * * * * * * * * * * * * //

dimensions      [0 2 -2 0 0 0 0];

internalField   nonuniform List<scalar> 
400
(
2.02368e-06
-0.00566774
-0.0126802
-0.0180058
-0.0199304
-0.0177021
-0.0112659
-0.0010619
0.0121268
0.0272765
0.0431995
0.0586169
0.0722431
0.0828929
0.0896187
0.0918793
0.089741
0.0840883
0.0768455
0.071175
0.00562377
-0.000212386
-0.0057069
-0.00935355
-0.0103386
-0.00813697
-0.00267714
0.0057285
0.0164897
0.0288114
0.0417549
0.0543024
0.0654335
0.0742183
0.0799284
0.0821644
0.0810028
0.0770742
0.0713781
0.0655691
0.0130488
0.00495051
-0.000989476
-0.00433337
-0.0051156
-0.00306734
0.00180927
0.00921814
0.0186537
0.029446
0.0408
0.0518451
0.0616982
0.0695433
0.0747207
0.0768313
0.075865
0.0721943
0.0659949
0.0579093
0.0197198
0.00852926
0.00115341
-0.00265663
-0.00364005
-0.00175717
0.00288246
0.00993789
0.0189175
0.0292019
0.0400609
0.050685
0.060235
0.0679064
0.073006
0.0750452
0.0738793
0.0696541
0.0618856
0.0506161
0.0239873
0.00955369
0.000465346
-0.00402632
-0.00526785
-0.00341977
0.00129717
0.00847536
0.0176058
0.0280827
0.0391996
0.0501627
0.0601244
0.068236
0.0737123
0.0759241
0.0745642
0.0695685
0.0598886
0.0451736
0.0246365
0.00692802
-0.00393756
-0.00911007
-0.010489
-0.00841796
-0.00323025
0.00458732
0.014489
0.0258593
0.0379881
0.0500657
0.0611993
0.0704516
0.0768962
0.0797147
0.0784014
0.0726742
0.0609549
0.0426081
0.020603
-0.000431675
-0.0130373
-0.0187367
-0.019982
-0.0173039
-0.0111567
-0.00211685
0.00922198
0.0222228
0.0361587
0.0501867
0.0633446
0.0745722
0.0827555
0.0868307
0.0860372
0.0798301
0.066058
0.0438236
0.010777
-0.0136828
-0.0279042
-0.0338209
-0.0344995
-0.030691
-0.0229903
-0.0120744
0.00141236
0.0168137
0.0333897
0.0502657
0.0664032
0.0805978
0.0915052
0.0977489
0.0982297
0.0920433
0.0763267
0.0498562
-0.00614823
-0.0341849
-0.0497933
-0.0554271
-0.0549064
-0.0492712
-0.0392923
-0.0257593
-0.00936082
0.00924635
0.0293342
0.0500208
0.0702077
0.0885439
0.10342
0.113072
0.115943
0.110608
0.0932325
0.0620992
-0.0318158
-0.0636246
-0.080216
-0.0847829
-0.0821452
-0.0737495
-0.060595
-0.0435953
-0.0234641
-0.000819125
0.0236742
0.0491813
0.0745926
0.098438
0.118831
0.13354
0.140404
0.137229
0.118789
0.0825389
-0.068395
-0.104182
-0.12102
-0.123265
-0.117154
-0.104719
-0.0872563
-0.0658066
-0.0410688
-0.0135545
0.016218
0.0475542
0.0794265
0.110322
0.138108
0.160032
0.173152
0.174173
0.155809
0.114073
-0.118922
-0.158794
-0.174487
-0.172351
-0.160722
-0.142467
-0.119245
-0.092205
-0.0619525
-0.0287865
0.00704615
0.0451321
0.0846766
0.124272
0.161648
0.193545
0.216088
0.224445
0.20828
0.161021
-0.187993
-0.231596
-0.243449
-0.233498
-0.213243
-0.186677
-0.155846
-0.121913
-0.0852517
-0.0457849
-0.0033134
0.0422231
0.0904827
0.140408
0.189829
0.235134
0.271466
0.291994
0.281929
0.230049
-0.283254
-0.328672
-0.33134
-0.307838
-0.274283
-0.235998
-0.195274
-0.153052
-0.109215
-0.063071
-0.013746
0.0395375
0.0971787
0.15883
0.222848
0.285686
0.341732
0.381856
0.3851
0.331989
-0.418565
-0.459191
-0.441932
-0.395414
-0.341786
-0.287387
-0.23421
-0.182446
-0.131046
-0.0783619
-0.0225661
0.0381068
0.105131
0.179335
0.260269
0.345292
0.428863
0.499925
0.52994
0.485397
-0.619712
-0.636554
-0.57838
-0.493917
-0.411028
-0.335443
-0.267504
-0.205609
-0.147071
-0.0888415
-0.0278471
0.0389179
0.114323
0.200901
0.300304
0.412248
0.533139
0.651885
0.733165
0.722131
-0.934811
-0.878699
-0.741493
-0.597741
-0.474338
-0.372619
-0.288755
-0.217539
-0.153612
-0.0920236
-0.0282172
0.0422042
0.123729
0.2211
0.3392
0.482284
0.651883
0.841156
1.01577
1.09669
-1.47406
-1.20841
-0.920447
-0.691149
-0.517361
-0.387644
-0.290076
-0.21323
-0.147885
-0.0868603
-0.024143
0.0459204
0.129374
0.233435
0.367368
0.542769
0.770988
1.05916
1.40536
1.7277
-2.53133
-1.63899
-1.04573
-0.710715
-0.495795
-0.352183
-0.254528
-0.183469
-0.125936
-0.0732522
-0.0188527
0.0432349
0.119633
0.219131
0.35508
0.548117
0.826254
1.23809
1.92099
2.91506
-4.34933
-2.04818
-0.973842
-0.56315
-0.358511
-0.240968
-0.17079
-0.124207
-0.0876255
-0.0533744
-0.0162649
0.0282409
0.0853119
0.162483
0.273123
0.442551
0.718007
1.2258
2.41434
4.82993
)
;

boundaryField
{
    movingWall
    {
        type            zeroGradient;
    }
    fixedWalls
    {
        type            zeroGradient;
    }
    frontAndBack
    {
        type            empty;
    }
}


// ************************************************************************* //
