/*--------------------------------*- C++ -*----------------------------------*\
  =========                 |
  \\      /  F ield         | OpenFOAM: The Open Source CFD Toolbox
   \\    /   O peration     | Website:  https://openfoam.org
    \\  /    A nd           | Version:  6
     \\/     M anipulation  |
\*---------------------------------------------------------------------------*/
FoamFile
{
    version     2.0;
    format      ascii;
    class       surfaceScalarField;
    location    "0.09";
    object      phi;
}
// * * * * * * * * * * * * * * * * * * * * * * * * * * * * * * * * * * * * * //

dimensions      [0 3 -1 0 0 0 0];

internalField   nonuniform List<scalar> 
760
(
1.39711e-08
-1.39806e-08
-2.19389e-08
3.59103e-08
-1.12558e-07
9.06196e-08
-2.41574e-07
1.29016e-07
-3.89553e-07
1.47978e-07
-5.38139e-07
1.48586e-07
-6.71545e-07
1.33406e-07
-7.77123e-07
1.05579e-07
-8.45496e-07
6.83728e-08
-8.70601e-07
2.51053e-08
-8.4983e-07
-2.07701e-08
-7.84278e-07
-6.55522e-08
-6.79039e-07
-1.05238e-07
-5.43454e-07
-1.35585e-07
-3.91123e-07
-1.52332e-07
-2.39459e-07
-1.51663e-07
-1.08457e-07
-1.31002e-07
-1.83454e-08
-9.01117e-08
1.53804e-08
-3.37257e-08
1.53805e-08
-3.36876e-08
1.97069e-08
-1.77427e-07
1.79649e-07
-4.26667e-07
3.3986e-07
-7.51342e-07
4.53692e-07
-1.11262e-06
5.09259e-07
-1.47116e-06
5.07122e-07
-1.79146e-06
4.53703e-07
-2.04416e-06
3.58277e-07
-2.20714e-06
2.31359e-07
-2.26618e-06
8.41387e-08
-2.2154e-06
-7.15464e-08
-2.05787e-06
-2.23081e-07
-1.80603e-06
-3.57081e-07
-1.48186e-06
-4.59752e-07
-1.11642e-06
-5.17778e-07
-7.48114e-07
-5.19964e-07
-4.1931e-07
-4.59806e-07
-1.70424e-07
-3.38997e-07
-3.04675e-08
-1.73682e-07
-1.5087e-08
-9.07316e-08
1.10438e-07
-3.51001e-07
4.39918e-07
-7.51624e-07
7.40484e-07
-1.24692e-06
9.48988e-07
-1.7837e-06
1.04604e-06
-2.30879e-06
1.03221e-06
-2.774e-06
9.18916e-07
-3.13922e-06
7.23492e-07
-3.37407e-06
4.66217e-07
-3.45901e-06
1.69074e-07
-3.38603e-06
-1.44525e-07
-3.15941e-06
-4.49702e-07
-2.79622e-06
-7.20266e-07
-2.32647e-06
-9.29505e-07
-1.79226e-06
-1.05199e-06
-1.2455e-06
-1.06672e-06
-7.43509e-07
-9.618e-07
-3.42079e-07
-7.40428e-07
-8.62057e-08
-4.29555e-07
-1.01293e-07
-1.42838e-07
2.53276e-07
-5.16974e-07
8.14053e-07
-1.06425e-06
1.28776e-06
-1.71944e-06
1.60418e-06
-2.41485e-06
1.74145e-06
-3.08584e-06
1.7032e-06
-3.6751e-06
1.50818e-06
-4.13535e-06
1.18374e-06
-4.43093e-06
7.61804e-07
-4.53886e-06
2.76999e-07
-4.44953e-06
-2.33852e-07
-4.16755e-06
-7.31686e-07
-3.71239e-06
-1.17542e-06
-3.11878e-06
-1.52312e-06
-2.43608e-06
-1.73469e-06
-1.72626e-06
-1.77655e-06
-1.05957e-06
-1.62848e-06
-5.08085e-07
-1.29192e-06
-1.37434e-07
-8.00206e-07
-2.38727e-07
-1.90697e-07
4.43974e-07
-6.74992e-07
1.29835e-06
-1.3656e-06
1.97837e-06
-2.17545e-06
2.41403e-06
-3.02129e-06
2.58729e-06
-3.82775e-06
2.50966e-06
-4.53021e-06
2.21063e-06
-5.07649e-06
1.73002e-06
-5.42771e-06
1.11302e-06
-5.55867e-06
4.0796e-07
-5.4584e-06
-3.34124e-07
-5.13088e-06
-1.0592e-06
-4.5961e-06
-1.7102e-06
-3.89094e-06
-2.22828e-06
-3.06956e-06
-2.55607e-06
-2.20228e-06
-2.64383e-06
-1.37232e-06
-2.45843e-06
-6.70101e-07
-1.99414e-06
-1.8542e-07
-1.28489e-06
-4.24147e-07
-2.36871e-07
6.80845e-07
-8.29967e-07
1.89144e-06
-1.66275e-06
2.81116e-06
-2.62473e-06
3.37601e-06
-3.61624e-06
3.5788e-06
-4.55151e-06
3.44493e-06
-5.36004e-06
3.01916e-06
-5.98666e-06
2.35664e-06
-6.39093e-06
1.51728e-06
-6.54653e-06
5.63569e-07
-6.44122e-06
-4.39443e-07
-6.07738e-06
-1.42303e-06
-5.47359e-06
-2.314e-06
-4.66649e-06
-3.03538e-06
-3.71271e-06
-3.50985e-06
-2.68957e-06
-3.66697e-06
-1.69361e-06
-3.45439e-06
-8.35855e-07
-2.8519e-06
-2.33675e-07
-1.88707e-06
-6.57822e-07
-2.83892e-07
9.64737e-07
-9.87505e-07
2.59506e-06
-1.96322e-06
3.78688e-06
-3.07538e-06
4.48816e-06
-4.20729e-06
4.71071e-06
-5.26364e-06
4.50128e-06
-6.1699e-06
3.92542e-06
-6.87012e-06
3.05686e-06
-7.32434e-06
1.97151e-06
-7.50645e-06
7.45676e-07
-7.40308e-06
-5.42815e-07
-7.01405e-06
-1.81207e-06
-6.35433e-06
-2.97371e-06
-5.45743e-06
-3.93227e-06
-4.37943e-06
-4.58786e-06
-3.20251e-06
-4.84389e-06
-2.03618e-06
-4.62072e-06
-1.01424e-06
-3.87384e-06
-2.85902e-07
-2.6154e-06
-9.43724e-07
-3.34037e-07
1.29877e-06
-1.15268e-06
3.4137e-06
-2.27288e-06
4.90707e-06
-3.53124e-06
5.74653e-06
-4.79392e-06
5.97339e-06
-5.95788e-06
5.66523e-06
-6.94751e-06
4.91506e-06
-7.70942e-06
3.81877e-06
-8.207e-06
2.46909e-06
-8.41619e-06
9.54858e-07
-8.32308e-06
-6.35923e-07
-7.9239e-06
-2.21124e-06
-7.22751e-06
-3.67011e-06
-6.26038e-06
-4.89941e-06
-5.07357e-06
-5.77466e-06
-3.75019e-06
-6.16727e-06
-2.41085e-06
-5.96005e-06
-1.21376e-06
-5.07093e-06
-3.45692e-07
-3.48347e-06
-1.28942e-06
-3.89506e-07
1.68828e-06
-1.33e-06
4.35419e-06
-2.59527e-06
6.17234e-06
-3.99056e-06
7.14182e-06
-5.36544e-06
7.34828e-06
-6.61262e-06
6.91241e-06
-7.66027e-06
5.9627e-06
-8.46239e-06
4.6209e-06
-8.98988e-06
2.99657e-06
-9.22354e-06
1.18852e-06
-9.15009e-06
-7.09376e-07
-8.76133e-06
-2.6e-06
-8.05702e-06
-4.37442e-06
-7.0516e-06
-5.90483e-06
-5.78458e-06
-7.04168e-06
-4.3333e-06
-7.61855e-06
-2.82484e-06
-7.46851e-06
-1.44209e-06
-6.45368e-06
-4.16638e-07
-4.50892e-06
-1.70605e-06
-4.53045e-07
2.14132e-06
-1.52425e-06
5.4254e-06
-2.9318e-06
7.57989e-06
-4.44488e-06
8.65489e-06
-5.89863e-06
8.80203e-06
-7.1876e-06
8.20138e-06
-8.25111e-06
7.02621e-06
-9.05758e-06
5.42737e-06
-9.59102e-06
3.53001e-06
-9.84103e-06
1.43853e-06
-9.79685e-06
-7.53557e-07
-9.44549e-06
-2.95136e-06
-8.77455e-06
-5.04536e-06
-7.78034e-06
-6.89903e-06
-6.48192e-06
-8.34011e-06
-4.94033e-06
-9.16014e-06
-3.28018e-06
-9.12866e-06
-1.70616e-06
-8.0277e-06
-5.02815e-07
-5.71227e-06
-2.20887e-06
-5.29056e-07
2.67038e-06
-1.74197e-06
6.63831e-06
-3.28206e-06
9.11998e-06
-4.87732e-06
1.02502e-05
-6.35402e-06
1.02787e-05
-7.61877e-06
9.46613e-06
-8.63287e-06
8.04031e-06
-9.38839e-06
6.1829e-06
-9.88953e-06
4.03114e-06
-1.01396e-05
1.68855e-06
-1.0133e-05
-7.6015e-07
-9.8524e-06
-3.23192e-06
-9.27077e-06
-5.62698e-06
-8.3598e-06
-7.81e-06
-7.10696e-06
-9.59295e-06
-5.54202e-06
-1.07251e-05
-3.77137e-06
-1.08993e-05
-2.01241e-06
-9.78666e-06
-6.09673e-07
-7.11501e-06
-2.81854e-06
-6.25449e-07
3.29583e-06
-1.99331e-06
8.00618e-06
-3.64293e-06
1.07696e-05
-5.25821e-06
1.18654e-05
-6.66882e-06
1.16893e-05
-7.81008e-06
1.06074e-05
-8.68007e-06
8.9103e-06
-9.30572e-06
6.80854e-06
-9.71904e-06
4.44447e-06
-9.94208e-06
1.91159e-06
-9.97792e-06
-7.24309e-07
-9.80648e-06
-3.40337e-06
-9.38498e-06
-6.04848e-06
-8.65525e-06
-8.53973e-06
-7.56131e-06
-1.06869e-05
-6.08197e-06
-1.22044e-05
-4.28063e-06
-1.27006e-05
-2.36672e-06
-1.17006e-05
-7.45502e-07
-8.73623e-06
-3.56404e-06
-7.56657e-07
4.05249e-06
-2.29329e-06
9.54281e-06
-4.00389e-06
1.24802e-05
-5.53437e-06
1.33959e-05
-6.74308e-06
1.2898e-05
-7.61945e-06
1.14838e-05
-8.21706e-06
9.50792e-06
-8.60903e-06
7.20051e-06
-8.86149e-06
4.69694e-06
-9.01896e-06
2.06906e-06
-9.09617e-06
-6.47095e-07
-9.07335e-06
-3.42619e-06
-8.89423e-06
-6.2276e-06
-8.46922e-06
-8.96474e-06
-7.68944e-06
-1.14667e-05
-6.46073e-06
-1.34331e-05
-4.76789e-06
-1.43935e-05
-2.77241e-06
-1.36961e-05
-9.23745e-07
-1.05849e-05
-4.48779e-06
-9.48027e-07
5.00051e-06
-2.65932e-06
1.12541e-05
-4.33183e-06
1.41527e-05
-5.60483e-06
1.46689e-05
-6.41288e-06
1.37061e-05
-6.83533e-06
1.19062e-05
-7.00089e-06
9.67347e-06
-7.0363e-06
7.23593e-06
-7.0429e-06
4.70354e-06
-7.08726e-06
2.11342e-06
-7.19701e-06
-5.37346e-07
-7.35698e-06
-3.26621e-06
-7.50427e-06
-6.08031e-06
-7.52413e-06
-8.94488e-06
-7.25381e-06
-1.1737e-05
-6.5082e-06
-1.41787e-05
-5.14928e-06
-1.57524e-05
-3.22258e-06
-1.56228e-05
-1.16586e-06
-1.26416e-05
-5.65365e-06
-1.23936e-06
6.23988e-06
-3.09431e-06
1.3109e-05
-4.52989e-06
1.55883e-05
-5.2686e-06
1.54076e-05
-5.40149e-06
1.3839e-05
-5.13964e-06
1.16444e-05
-4.69866e-06
9.23249e-06
-4.25461e-06
6.79188e-06
-3.9343e-06
4.38322e-06
-3.81816e-06
1.99728e-06
-3.94396e-06
-4.11549e-07
-4.30582e-06
-2.90434e-06
-4.84672e-06
-5.53941e-06
-5.44497e-06
-8.34663e-06
-5.90038e-06
-1.12816e-05
-5.93626e-06
-1.41429e-05
-5.25114e-06
-1.64375e-05
-3.6746e-06
-1.71993e-05
-1.50083e-06
-1.48154e-05
-7.15448e-06
-1.67343e-06
7.9133e-06
-3.52223e-06
1.49578e-05
-4.3357e-06
1.64018e-05
-4.12138e-06
1.51933e-05
-3.2382e-06
1.29558e-05
-2.05619e-06
1.04623e-05
-8.63453e-07
8.03975e-06
1.42568e-07
5.78586e-06
8.36133e-07
3.68965e-06
1.14178e-06
1.69163e-06
1.02026e-06
-2.90033e-07
4.64871e-07
-2.34895e-06
-4.90375e-07
-4.58417e-06
-1.74885e-06
-7.08815e-06
-3.11603e-06
-9.91439e-06
-4.26141e-06
-1.29975e-05
-4.7139e-06
-1.5985e-05
-3.97413e-06
-1.79391e-05
-1.94336e-06
-1.68461e-05
-9.09784e-06
-2.2241e-06
1.01374e-05
-3.59421e-06
1.6328e-05
-3.09355e-06
1.59011e-05
-1.37094e-06
1.34707e-05
8.5791e-07
1.0727e-05
3.10379e-06
8.21646e-06
5.07608e-06
6.06746e-06
6.61805e-06
4.24389e-06
7.64962e-06
2.65809e-06
8.12828e-06
1.21297e-06
8.02724e-06
-1.88994e-07
7.32751e-06
-1.64922e-06
6.02351e-06
-3.28017e-06
4.1464e-06
-5.21104e-06
1.81346e-06
-7.58145e-06
-6.89765e-07
-1.04943e-05
-2.80782e-06
-1.3867e-05
-3.66476e-06
-1.70821e-05
-2.4035e-06
-1.81074e-05
-1.15013e-05
-2.54749e-06
1.26849e-05
-2.18418e-06
1.59646e-05
7.06646e-07
1.30103e-05
4.44972e-06
9.72763e-06
8.10356e-06
7.07312e-06
1.12615e-05
5.05856e-06
1.37794e-05
3.54953e-06
1.56307e-05
2.39263e-06
1.68291e-05
1.45961e-06
1.73903e-05
6.5176e-07
1.73131e-05
-1.117e-07
1.65714e-05
-9.07612e-07
1.5115e-05
-1.82368e-06
1.288e-05
-2.9761e-06
9.82806e-06
-4.5295e-06
6.03834e-06
-6.70454e-06
1.89854e-06
-9.72718e-06
-1.56061e-06
-1.3623e-05
-2.43015e-06
-1.72379e-05
-1.39315e-05
-8.43975e-07
1.35289e-05
4.06444e-06
1.10562e-05
1.02892e-05
6.78552e-06
1.57814e-05
4.23542e-06
2.01395e-05
2.71505e-06
2.34324e-05
1.76569e-06
2.58282e-05
1.15373e-06
2.74832e-05
7.37568e-07
2.8512e-05
4.30818e-07
2.8983e-05
1.80769e-07
2.89197e-05
-4.83646e-08
2.82993e-05
-2.87248e-07
2.70472e-05
-5.71554e-07
2.50263e-05
-9.55166e-07
2.20289e-05
-1.53217e-06
1.77981e-05
-2.47373e-06
1.21587e-05
-4.08779e-06
5.45614e-06
-6.92041e-06
-1.95347e-07
-1.15864e-05
-1.41268e-05
1.35289e-05
2.45851e-05
3.13706e-05
3.5606e-05
3.83211e-05
4.00868e-05
4.12405e-05
4.19781e-05
4.24089e-05
4.25896e-05
4.25413e-05
4.2254e-05
4.16825e-05
4.07273e-05
3.91951e-05
3.67214e-05
3.26336e-05
2.57132e-05
1.41268e-05
)
;

boundaryField
{
    movingWall
    {
        type            calculated;
        value           uniform 0;
    }
    fixedWalls
    {
        type            calculated;
        value           uniform 0;
    }
    frontAndBack
    {
        type            empty;
        value           nonuniform 0();
    }
}


// ************************************************************************* //
