/*--------------------------------*- C++ -*----------------------------------*\
  =========                 |
  \\      /  F ield         | OpenFOAM: The Open Source CFD Toolbox
   \\    /   O peration     | Website:  https://openfoam.org
    \\  /    A nd           | Version:  6
     \\/     M anipulation  |
\*---------------------------------------------------------------------------*/
FoamFile
{
    version     2.0;
    format      ascii;
    class       volVectorField;
    location    "0.09";
    object      U;
}
// * * * * * * * * * * * * * * * * * * * * * * * * * * * * * * * * * * * * * //

dimensions      [0 1 -1 0 0 0 0];

internalField   nonuniform List<vector> 
400
(
(0.000244325 -0.00024128 0)
(0.000132178 0.000116589 0)
(-0.00116111 0.00056243 0)
(-0.00342686 0.000876972 0)
(-0.00627368 0.00103446 0)
(-0.00931119 0.00104962 0)
(-0.0121924 0.000946681 0)
(-0.0146303 0.000751606 0)
(-0.0164035 0.000489135 0)
(-0.017357 0.000182986 0)
(-0.0174031 -0.000142702 0)
(-0.0165258 -0.000461894 0)
(-0.0147861 -0.000745742 0)
(-0.0123281 -0.000962573 0)
(-0.00938299 -0.00107911 0)
(-0.00626521 -0.00106357 0)
(-0.00335737 -0.000891641 0)
(-0.00107709 -0.000556013 0)
(0.000185225 -9.65643e-05 0)
(0.000258683 0.000253427 0)
(-8.34376e-05 -0.000159927 0)
(-0.00159302 0.00162567 0)
(-0.00559814 0.00356398 0)
(-0.0115194 0.00495503 0)
(-0.0185671 0.00564905 0)
(-0.0259423 0.0056642 0)
(-0.0328846 0.00508517 0)
(-0.0387368 0.00402489 0)
(-0.0429797 0.00260591 0)
(-0.0452473 0.000955383 0)
(-0.0453362 -0.000793315 0)
(-0.0432161 -0.00249765 0)
(-0.0390407 -0.00400483 0)
(-0.033155 -0.00515494 0)
(-0.0260946 -0.00579043 0)
(-0.0185668 -0.00577463 0)
(-0.0113972 -0.0050225 0)
(-0.00543765 -0.00354511 0)
(-0.00148266 -0.00154676 0)
(-5.0108e-05 0.000216315 0)
(-0.000527554 0.00107604 0)
(-0.00365714 0.00564098 0)
(-0.0104102 0.0100503 0)
(-0.0196526 0.0131746 0)
(-0.030241 0.0146825 0)
(-0.041107 0.0145747 0)
(-0.0512261 0.0130199 0)
(-0.0597024 0.010273 0)
(-0.0658244 0.00662981 0)
(-0.0690889 0.00240881 0)
(-0.0692171 -0.00205143 0)
(-0.0661689 -0.00639063 0)
(-0.0601564 -0.0102283 0)
(-0.0516513 -0.0131751 0)
(-0.0413825 -0.0148589 0)
(-0.0303072 -0.0149718 0)
(-0.0195362 -0.0133418 0)
(-0.0102152 -0.0100276 0)
(-0.00350811 -0.00547485 0)
(-0.000478904 -0.000940744 0)
(-0.000921787 0.00342391 0)
(-0.00560816 0.0120163 0)
(-0.0150553 0.0195851 0)
(-0.0274686 0.0247664 0)
(-0.0413116 0.027119 0)
(-0.0552755 0.0266644 0)
(-0.0681369 0.0236896 0)
(-0.0788365 0.01863 0)
(-0.0865386 0.0119986 0)
(-0.0906531 0.00435391 0)
(-0.0908507 -0.00370849 0)
(-0.0870781 -0.0115563 0)
(-0.0795735 -0.0185249 0)
(-0.0688789 -0.0239382 0)
(-0.0558417 -0.0271538 0)
(-0.0415925 -0.0276418 0)
(-0.0274668 -0.0251002 0)
(-0.014886 -0.0195967 0)
(-0.00544005 -0.0117597 0)
(-0.000859542 -0.00318514 0)
(-0.00127018 0.00676784 0)
(-0.00743578 0.0206143 0)
(-0.0195172 0.0319806 0)
(-0.0350228 0.0394425 0)
(-0.0519851 0.0425696 0)
(-0.0688528 0.0414863 0)
(-0.0842318 0.0366552 0)
(-0.0969446 0.0287347 0)
(-0.106077 0.0184879 0)
(-0.110987 0.00674036 0)
(-0.11131 -0.00563135 0)
(-0.106973 -0.0176979 0)
(-0.0982096 -0.0284815 0)
(-0.0855854 -0.0369816 0)
(-0.070013 -0.0422372 0)
(-0.0527503 -0.0434354 0)
(-0.0353368 -0.0400692 0)
(-0.0194908 -0.0321261 0)
(-0.00729136 -0.020308 0)
(-0.00120023 -0.00641521 0)
(-0.00159959 0.0110443 0)
(-0.00921472 0.0313874 0)
(-0.0239121 0.0472156 0)
(-0.0424793 0.0571703 0)
(-0.0624886 0.0609646 0)
(-0.0821402 0.0589346 0)
(-0.0998898 0.0517986 0)
(-0.114478 0.0404906 0)
(-0.12495 0.0260544 0)
(-0.130642 0.00959735 0)
(-0.131168 -0.00771689 0)
(-0.126425 -0.0246571 0)
(-0.116612 -0.0399195 0)
(-0.102273 -0.0521507 0)
(-0.0843351 -0.0600178 0)
(-0.0641417 -0.0623437 0)
(-0.0434236 -0.0583085 0)
(-0.0242224 -0.0476933 0)
(-0.00917213 -0.0311483 0)
(-0.00153555 -0.0105959 0)
(-0.0019358 0.016245 0)
(-0.0110287 0.0443427 0)
(-0.0283763 0.0652976 0)
(-0.0499994 0.0779272 0)
(-0.0729825 0.0822345 0)
(-0.0952806 0.0789009 0)
(-0.115229 0.0689997 0)
(-0.13153 0.0538023 0)
(-0.143235 0.0346614 0)
(-0.149693 0.0129679 0)
(-0.150512 -0.00984071 0)
(-0.145551 -0.0322479 0)
(-0.134945 -0.0526306 0)
(-0.119159 -0.0692643 0)
(-0.0990718 -0.0803897 0)
(-0.0760578 -0.0843649 0)
(-0.0520084 -0.0799144 0)
(-0.0293043 -0.0664457 0)
(-0.0112091 -0.0444049 0)
(-0.00190132 -0.0157688 0)
(-0.00230198 0.0224099 0)
(-0.0129561 0.0595445 0)
(-0.0330303 0.0862559 0)
(-0.0576932 0.101666 0)
(-0.0835096 0.106248 0)
(-0.10821 0.101194 0)
(-0.130063 0.0880521 0)
(-0.147798 0.0685017 0)
(-0.160538 0.0442253 0)
(-0.167696 0.0168833 0)
(-0.168897 -0.0118502 0)
(-0.163961 -0.0402171 0)
(-0.15292 -0.0663075 0)
(-0.136097 -0.0880276 0)
(-0.114232 -0.103142 0)
(-0.0886415 -0.109428 0)
(-0.0613095 -0.104975 0)
(-0.0349457 -0.0885889 0)
(-0.0135283 -0.0603031 0)
(-0.00233275 -0.0220498 0)
(-0.0027218 0.0296232 0)
(-0.0150733 0.0771089 0)
(-0.0379734 0.110122 0)
(-0.0655985 0.128272 0)
(-0.0939588 0.132747 0)
(-0.120611 0.12546 0)
(-0.143845 0.108583 0)
(-0.162523 0.0842757 0)
(-0.175932 0.0545612 0)
(-0.183618 0.0213323 0)
(-0.185269 -0.0135668 0)
(-0.180666 -0.0482156 0)
(-0.169703 -0.0804865 0)
(-0.152478 -0.10795 0)
(-0.129476 -0.127865 0)
(-0.10181 -0.137309 0)
(-0.0714327 -0.133504 0)
(-0.0413214 -0.114355 0)
(-0.0162549 -0.0791615 0)
(-0.00286754 -0.0296262 0)
(-0.00322731 0.0380164 0)
(-0.0174732 0.0971951 0)
(-0.0432972 0.136887 0)
(-0.0736736 0.157487 0)
(-0.104031 0.161243 0)
(-0.131852 0.151074 0)
(-0.155595 0.129947 0)
(-0.174405 0.100574 0)
(-0.18786 0.0653125 0)
(-0.195739 0.0262192 0)
(-0.19785 -0.0147962 0)
(-0.193955 -0.0557723 0)
(-0.183773 -0.094482 0)
(-0.167091 -0.128245 0)
(-0.143983 -0.153825 0)
(-0.115158 -0.167488 0)
(-0.0823184 -0.165332 0)
(-0.0485621 -0.143934 0)
(-0.0195252 -0.101371 0)
(-0.00355344 -0.0387609 0)
(-0.00387321 0.0477884 0)
(-0.0202978 0.120004 0)
(-0.0491086 0.166451 0)
(-0.0817839 0.188801 0)
(-0.113182 0.190887 0)
(-0.140898 0.176999 0)
(-0.163788 0.1511 0)
(-0.181483 0.116509 0)
(-0.194021 0.0758739 0)
(-0.201528 0.0313113 0)
(-0.204011 -0.0153511 0)
(-0.201243 -0.0622816 0)
(-0.192758 -0.10733 0)
(-0.17794 -0.147721 0)
(-0.156281 -0.179804 0)
(-0.127814 -0.198979 0)
(-0.0936605 -0.199933 0)
(-0.056739 -0.177362 0)
(-0.0235084 -0.127369 0)
(-0.00446209 -0.0498099 0)
(-0.00476244 0.0592566 0)
(-0.0237881 0.145787 0)
(-0.0555476 0.198525 0)
(-0.0896486 0.221296 0)
(-0.1205 0.220286 0)
(-0.146149 0.201626 0)
(-0.166183 0.170468 0)
(-0.180982 0.130752 0)
(-0.191228 0.0853179 0)
(-0.197519 0.0361852 0)
(-0.200139 -0.0150879 0)
(-0.198928 -0.0670144 0)
(-0.193243 -0.117758 0)
(-0.182015 -0.164687 0)
(-0.163992 -0.203937 0)
(-0.138218 -0.23009 0)
(-0.104758 -0.236181 0)
(-0.0658213 -0.214351 0)
(-0.0284368 -0.15759 0)
(-0.00571327 -0.063265 0)
(-0.00609137 0.0729589 0)
(-0.0283503 0.174841 0)
(-0.0627597 0.232473 0)
(-0.0966773 0.253392 0)
(-0.124448 0.24726 0)
(-0.145148 0.222585 0)
(-0.159558 0.185833 0)
(-0.169101 0.141472 0)
(-0.175264 0.0923514 0)
(-0.179208 0.0401861 0)
(-0.181554 -0.0139541 0)
(-0.182271 -0.0691647 0)
(-0.180597 -0.124202 0)
(-0.175037 -0.176909 0)
(-0.163507 -0.223551 0)
(-0.143768 -0.258143 0)
(-0.114235 -0.271998 0)
(-0.0755566 -0.253987 0)
(-0.0346382 -0.192381 0)
(-0.00751667 -0.0798384 0)
(-0.00822318 0.0898336 0)
(-0.0346161 0.207445 0)
(-0.0707203 0.26697 0)
(-0.101546 0.282448 0)
(-0.122315 0.268533 0)
(-0.134057 0.236575 0)
(-0.139297 0.194277 0)
(-0.140745 0.14635 0)
(-0.14075 0.0953513 0)
(-0.141021 0.0424336 0)
(-0.142518 -0.012035 0)
(-0.145387 -0.0679473 0)
(-0.14887 -0.124925 0)
(-0.151198 -0.181668 0)
(-0.149546 -0.235089 0)
(-0.140256 -0.279188 0)
(-0.119502 -0.303865 0)
(-0.0851597 -0.294224 0)
(-0.0425264 -0.231774 0)
(-0.0102331 -0.100601 0)
(-0.0117665 0.111476 0)
(-0.0433625 0.243557 0)
(-0.0786211 0.299335 0)
(-0.10119 0.304165 0)
(-0.109157 0.279416 0)
(-0.106778 0.239336 0)
(-0.0987956 0.19234 0)
(-0.0892164 0.142806 0)
(-0.0810711 0.0925604 0)
(-0.076415 0.041927 0)
(-0.0764217 -0.00957924 0)
(-0.0814287 -0.0627628 0)
(-0.0908561 -0.118287 0)
(-0.102985 -0.176063 0)
(-0.114649 -0.234279 0)
(-0.12102 -0.287855 0)
(-0.115739 -0.326249 0)
(-0.0925227 -0.331042 0)
(-0.052367 -0.274935 0)
(-0.0144079 -0.127138 0)
(-0.0174708 0.140525 0)
(-0.0547695 0.281926 0)
(-0.0830747 0.324247 0)
(-0.0886121 0.31179 0)
(-0.0758852 0.273664 0)
(-0.0536215 0.225967 0)
(-0.0287261 0.17656 0)
(-0.00597994 0.128556 0)
(0.0114922 0.0825385 0)
(0.021761 0.0378087 0)
(0.0237222 -0.00696849 0)
(0.0169089 -0.0534257 0)
(0.0015276 -0.103226 0)
(-0.0212458 -0.157651 0)
(-0.0486904 -0.21675 0)
(-0.0757262 -0.277593 0)
(-0.0940371 -0.331085 0)
(-0.0923115 -0.357144 0)
(-0.0632264 -0.318992 0)
(-0.0205209 -0.161766 0)
(-0.0251975 0.181516 0)
(-0.0655662 0.317811 0)
(-0.0735441 0.331147 0)
(-0.0485173 0.294959 0)
(-0.00623677 0.243671 0)
(0.0403138 0.191822 0)
(0.0835122 0.144537 0)
(0.119196 0.102565 0)
(0.145217 0.0648736 0)
(0.160483 0.0297912 0)
(0.164373 -0.00460371 0)
(0.156436 -0.0404048 0)
(0.136368 -0.0798926 0)
(0.104267 -0.12547 0)
(0.0613227 -0.179227 0)
(0.0111201 -0.241518 0)
(-0.0382832 -0.307435 0)
(-0.0718841 -0.359883 0)
(-0.0697678 -0.356578 0)
(-0.0276005 -0.208078 0)
(-0.0289688 0.238663 0)
(-0.0601883 0.336139 0)
(-0.0221201 0.300553 0)
(0.0501889 0.239906 0)
(0.127085 0.182639 0)
(0.196313 0.135065 0)
(0.253432 0.0971023 0)
(0.297167 0.0666148 0)
(0.32761 0.0412027 0)
(0.34518 0.0187215 0)
(0.350081 -0.00275433 0)
(0.342064 -0.0251373 0)
(0.320343 -0.0505881 0)
(0.283676 -0.0817988 0)
(0.2308 -0.122174 0)
(0.161613 -0.175404 0)
(0.0794746 -0.243233 0)
(-0.00341224 -0.319165 0)
(-0.0538954 -0.368909 0)
(-0.0276635 -0.26696 0)
(0.00960916 0.28086 0)
(0.0212322 0.294808 0)
(0.138795 0.210895 0)
(0.264143 0.143371 0)
(0.364066 0.0970907 0)
(0.43993 0.0656979 0)
(0.496155 0.0441714 0)
(0.536155 0.0288372 0)
(0.562632 0.0171728 0)
(0.577439 0.00748481 0)
(0.581508 -0.00146876 0)
(0.574865 -0.010798 0)
(0.556558 -0.0217845 0)
(0.524494 -0.0362634 0)
(0.475266 -0.0571809 0)
(0.40414 -0.0892919 0)
(0.304747 -0.139627 0)
(0.173021 -0.216251 0)
(0.042718 -0.311341 0)
(0.0201204 -0.298854 0)
(0.300973 0.145471 0)
(0.39777 0.12706 0)
(0.557515 0.0759157 0)
(0.674455 0.0436717 0)
(0.74384 0.0255746 0)
(0.787017 0.0152671 0)
(0.815265 0.00924218 0)
(0.833674 0.00553668 0)
(0.845064 0.00304982 0)
(0.851031 0.0011669 0)
(0.852328 -0.000487738 0)
(0.849065 -0.00220936 0)
(0.840719 -0.00433965 0)
(0.825911 -0.007431 0)
(0.801915 -0.0125384 0)
(0.763529 -0.0217617 0)
(0.699014 -0.0392201 0)
(0.583936 -0.0724564 0)
(0.417314 -0.12734 0)
(0.310265 -0.1488 0)
)
;

boundaryField
{
    movingWall
    {
        type            fixedValue;
        value           uniform (1 0 0);
    }
    fixedWalls
    {
        type            noSlip;
    }
    frontAndBack
    {
        type            empty;
    }
}


// ************************************************************************* //
