/*--------------------------------*- C++ -*----------------------------------*\
  =========                 |
  \\      /  F ield         | OpenFOAM: The Open Source CFD Toolbox
   \\    /   O peration     | Website:  https://openfoam.org
    \\  /    A nd           | Version:  6
     \\/     M anipulation  |
\*---------------------------------------------------------------------------*/
FoamFile
{
    version     2.0;
    format      ascii;
    class       volScalarField;
    location    "0.035";
    object      p;
}
// * * * * * * * * * * * * * * * * * * * * * * * * * * * * * * * * * * * * * //

dimensions      [0 2 -2 0 0 0 0];

internalField   nonuniform List<scalar> 
400
(
7.26289e-07
-0.0231464
-0.0519586
-0.0741493
-0.0824248
-0.0735191
-0.0471898
-0.00536824
0.0485275
0.110108
0.174413
0.23626
0.29059
0.332852
0.359461
0.368387
0.359889
0.337367
0.308332
0.285195
0.0229324
-0.000848838
-0.0234574
-0.0387531
-0.0431475
-0.0343469
-0.0120559
0.0223337
0.0662298
0.116217
0.168375
0.218588
0.262855
0.297623
0.320162
0.328992
0.324415
0.308835
0.28603
0.262288
0.0534107
0.0204549
-0.00401182
-0.0181201
-0.0216878
-0.0134657
0.00652408
0.0369338
0.0754949
0.119285
0.164962
0.209008
0.247992
0.278843
0.299136
0.30742
0.303666
0.289229
0.264509
0.231583
0.0814322
0.0358353
0.00540544
-0.0106882
-0.0150528
-0.00736429
0.011881
0.0410912
0.0779884
0.119802
0.163422
0.205581
0.24306
0.272897
0.292611
0.30046
0.295913
0.279404
0.248589
0.202933
0.100497
0.0415354
0.0039599
-0.0149778
-0.0202745
-0.0124278
0.0075449
0.0376805
0.0755269
0.118285
0.162894
0.206148
0.244843
0.275932
0.296681
0.304902
0.299491
0.28005
0.241891
0.182668
0.105937
0.0333309
-0.0117013
-0.0334084
-0.0389728
-0.0296732
-0.00709723
0.0263224
0.0678389
0.114497
0.163155
0.210535
0.253308
0.288192
0.312051
0.322117
0.316628
0.29437
0.248492
0.175263
0.0936989
0.00702906
-0.0453404
-0.0690433
-0.0734925
-0.0608133
-0.0332552
0.00617758
0.0543478
0.108059
0.164007
0.218765
0.268788
0.310448
0.34008
0.354185
0.350204
0.326
0.272471
0.18461
0.0594494
-0.0419593
-0.101155
-0.125332
-0.126476
-0.107763
-0.0722643
-0.0236695
0.0344231
0.098541
0.165204
0.230822
0.291609
0.343535
0.38229
0.403476
0.403515
0.379078
0.318393
0.214971
-0.00214393
-0.119224
-0.184232
-0.206426
-0.201065
-0.172766
-0.125656
-0.0642432
0.0073758
0.0854817
0.166484
0.246701
0.322164
0.388446
0.440517
0.47288
0.48062
0.458737
0.391965
0.271773
-0.0981137
-0.231968
-0.300922
-0.317301
-0.300844
-0.258223
-0.194946
-0.116475
-0.0273824
0.0684844
0.167595
0.266366
0.360811
0.446212
0.516804
0.565796
0.586509
0.571535
0.500729
0.362405
-0.238135
-0.389802
-0.459259
-0.463805
-0.429627
-0.366351
-0.281263
-0.180863
-0.0700736
0.0473826
0.168352
0.289686
0.407706
0.517663
0.61317
0.686001
0.727219
0.725944
0.654947
0.497291
-0.436128
-0.60596
-0.669478
-0.652591
-0.591047
-0.498631
-0.384783
-0.256985
-0.120185
0.0224722
0.168718
0.316371
0.462594
0.603097
0.731226
0.837363
0.909847
0.932945
0.868923
0.691655
-0.713337
-0.899227
-0.944573
-0.890765
-0.78777
-0.654909
-0.503915
-0.342838
-0.17599
-0.00519806
0.168905
0.345869
0.524492
0.701765
0.871524
1.02323
1.14232
1.20668
1.16305
0.968834
-1.10475
-1.29709
-1.3006
-1.18477
-1.01994
-0.831917
-0.634096
-0.433971
-0.233989
-0.0335343
0.169416
0.377142
0.591158
0.810984
1.03234
1.24507
1.43242
1.56481
1.5671
1.36701
-1.67231
-1.84031
-1.75557
-1.53736
-1.28208
-1.02078
-0.766081
-0.522431
-0.288355
-0.0592149
0.170915
0.408198
0.658174
0.924602
1.20738
1.49952
1.7848
2.02748
2.12481
1.95284
-2.52776
-2.58705
-2.32542
-1.94246
-1.55883
-1.20422
-0.884424
-0.596158
-0.330857
-0.0779
0.173838
0.435492
0.717956
1.03128
1.38292
1.77419
2.19594
2.61314
2.89765
2.84412
-3.87278
-3.61292
-3.01643
-2.38084
-1.82325
-1.35643
-0.968458
-0.640398
-0.352239
-0.0852872
0.177772
0.453706
0.759741
1.11433
1.53694
2.04548
2.64948
3.33059
3.96425
4.2489
-6.15927
-5.01366
-3.78642
-2.7903
-2.01934
-1.43423
-0.988478
-0.636665
-0.342546
-0.0781036
0.179996
0.453602
0.766069
1.14543
1.62792
2.25906
3.08473
4.13977
5.425
6.62738
-10.5694
-6.84898
-4.35768
-2.91506
-1.96824
-1.32318
-0.875226
-0.545634
-0.282446
-0.0515829
0.172499
0.412884
0.69516
1.05349
1.54007
2.23486
3.24513
4.76458
7.34524
11.1676
-17.9825
-8.61124
-4.15452
-2.37822
-1.46185
-0.918589
-0.578566
-0.344654
-0.163508
-0.00553751
0.149042
0.317418
0.51933
0.784183
1.16502
1.76046
2.74786
4.62127
9.19199
18.678
)
;

boundaryField
{
    movingWall
    {
        type            zeroGradient;
    }
    fixedWalls
    {
        type            zeroGradient;
    }
    frontAndBack
    {
        type            empty;
    }
}


// ************************************************************************* //
