/*--------------------------------*- C++ -*----------------------------------*\
  =========                 |
  \\      /  F ield         | OpenFOAM: The Open Source CFD Toolbox
   \\    /   O peration     | Website:  https://openfoam.org
    \\  /    A nd           | Version:  6
     \\/     M anipulation  |
\*---------------------------------------------------------------------------*/
FoamFile
{
    version     2.0;
    format      ascii;
    class       volScalarField;
    location    "0.075";
    object      p;
}
// * * * * * * * * * * * * * * * * * * * * * * * * * * * * * * * * * * * * * //

dimensions      [0 2 -2 0 0 0 0];

internalField   nonuniform List<scalar> 
400
(
1.64365e-05
-0.0347945
-0.0781499
-0.111606
-0.124139
-0.110798
-0.0712148
-0.00831335
0.07273
0.165279
0.261854
0.35467
0.436148
0.49949
0.539355
0.552718
0.539963
0.506177
0.462597
0.427789
0.0345239
-0.00124451
-0.0352737
-0.0583539
-0.0650403
-0.0518554
-0.0183521
0.0333573
0.0993453
0.174447
0.252754
0.328083
0.394443
0.446533
0.480286
0.493501
0.486634
0.46327
0.429046
0.393317
0.0803868
0.0308306
-0.00599875
-0.0273014
-0.0327443
-0.0204198
0.00963743
0.0553774
0.113356
0.179147
0.247707
0.313756
0.372159
0.418343
0.448706
0.461094
0.455465
0.433835
0.396754
0.347229
0.122668
0.0540971
0.00828471
-0.0160171
-0.0226543
-0.0111084
0.0178664
0.0618431
0.117352
0.180184
0.245643
0.308823
0.364916
0.409523
0.43897
0.450678
0.44386
0.419143
0.372948
0.30432
0.151628
0.0629369
0.00635514
-0.0222341
-0.0302529
-0.0184185
0.0117193
0.0571579
0.114147
0.178423
0.245353
0.310127
0.367969
0.414364
0.445282
0.457494
0.449362
0.420271
0.363108
0.274157
0.160296
0.051039
-0.0167874
-0.0495393
-0.0579111
-0.0438005
-0.00963411
0.0408536
0.103444
0.173621
0.246618
0.317519
0.381371
0.433327
0.468782
0.483663
0.475369
0.442068
0.373397
0.26352
0.142625
0.0121386
-0.0667573
-0.102482
-0.10908
-0.0897352
-0.0478996
0.0117971
0.0845162
0.165353
0.249287
0.331173
0.405749
0.46768
0.511596
0.532372
0.526246
0.490022
0.409968
0.278292
0.092136
-0.0606389
-0.149834
-0.1862
-0.187656
-0.158999
-0.104956
-0.0312396
0.0565775
0.153144
0.253158
0.351227
0.441744
0.518799
0.576106
0.607244
0.606976
0.570353
0.479669
0.324881
0.000815251
-0.175703
-0.273658
-0.306895
-0.298292
-0.254857
-0.182971
-0.089638
0.0187661
0.136482
0.25802
0.377851
0.490107
0.588319
0.665175
0.712682
0.72367
0.690747
0.591029
0.411397
-0.141963
-0.343931
-0.447802
-0.472036
-0.446321
-0.380828
-0.284102
-0.164657
-0.0296466
0.114933
0.263663
0.411152
0.551524
0.67791
0.781963
0.853835
0.883813
0.860988
0.755265
0.548825
-0.350883
-0.579892
-0.684421
-0.690441
-0.637459
-0.540194
-0.409973
-0.256962
-0.0889088
0.0883371
0.269897
0.451027
0.626322
0.788903
0.929556
1.03639
1.09641
1.09367
0.987599
0.752598
-0.647133
-0.903687
-0.999049
-0.972203
-0.877218
-0.735216
-0.560886
-0.365967
-0.158308
0.0570724
0.276605
0.49699
0.714085
0.921724
1.11035
1.26608
1.37201
1.40507
1.30921
1.04521
-1.06308
-1.34388
-1.41146
-1.32819
-1.16977
-0.96584
-0.734662
-0.488919
-0.235546
0.0223985
0.28379
0.547916
0.813079
1.07504
1.325
1.54778
1.7223
1.81612
1.75026
1.46113
-1.65199
-1.94223
-1.94613
-1.76839
-1.51566
-1.22754
-0.924912
-0.619677
-0.315976
-0.0131882
0.291553
0.601622
0.919376
1.24433
1.57051
1.88335
2.15861
2.35291
2.35481
2.05682
-2.50793
-2.76062
-2.63058
-2.29739
-1.90716
-1.5076
-1.1185
-0.747164
-0.391795
-0.0456943
0.299886
0.654141
1.02543
1.41957
1.83677
2.26718
2.68743
3.04509
3.1877
2.93104
-3.80003
-3.88707
-3.48935
-2.90667
-2.32193
-1.78094
-1.29323
-0.85436
-0.451798
-0.0697937
0.308238
0.698951
1.1187
1.58266
2.10224
2.67991
3.30279
3.91969
4.34028
4.25901
-5.83246
-5.43572
-4.53244
-3.56807
-2.7203
-2.00973
-1.41903
-0.920092
-0.483062
-0.079998
0.315008
0.727067
1.182
1.70749
2.33286
3.08518
3.97937
4.98926
5.92969
6.35123
-9.28488
-7.55097
-5.69686
-4.18852
-3.01863
-2.12956
-1.45169
-0.916893
-0.470843
-0.0715415
0.315979
0.724457
1.18888
1.75124
2.46588
3.40102
4.62562
6.19288
8.10495
9.89567
-15.9314
-10.3233
-6.56605
-4.38392
-2.94828
-1.96849
-1.28693
-0.785239
-0.385457
-0.0364866
0.299957
0.658461
1.07735
1.60781
2.32801
3.35756
4.85665
7.11561
10.9622
16.6723
-27.0777
-12.99
-6.27685
-3.58849
-2.19641
-1.36866
-0.848498
-0.48985
-0.212791
0.0269833
0.259098
0.50929
0.807139
1.19676
1.75776
2.63772
4.10083
6.88632
13.7135
27.916
)
;

boundaryField
{
    movingWall
    {
        type            zeroGradient;
    }
    fixedWalls
    {
        type            zeroGradient;
    }
    frontAndBack
    {
        type            empty;
    }
}


// ************************************************************************* //
