/*--------------------------------*- C++ -*----------------------------------*\
  =========                 |
  \\      /  F ield         | OpenFOAM: The Open Source CFD Toolbox
   \\    /   O peration     | Website:  https://openfoam.org
    \\  /    A nd           | Version:  6
     \\/     M anipulation  |
\*---------------------------------------------------------------------------*/
FoamFile
{
    version     2.0;
    format      ascii;
    class       surfaceScalarField;
    location    "0.075";
    object      phi;
}
// * * * * * * * * * * * * * * * * * * * * * * * * * * * * * * * * * * * * * //

dimensions      [0 3 -1 0 0 0 0];

internalField   nonuniform List<scalar> 
760
(
1.47899e-08
-1.48116e-08
-2.07592e-08
3.55491e-08
-1.12658e-07
9.18988e-08
-2.44705e-07
1.32047e-07
-3.96798e-07
1.52093e-07
-5.49566e-07
1.52768e-07
-6.86251e-07
1.36685e-07
-7.93564e-07
1.07313e-07
-8.61958e-07
6.83943e-08
-8.85658e-07
2.36993e-08
-8.62646e-07
-2.30118e-08
-7.94689e-07
-6.79569e-08
-6.87405e-07
-1.07284e-07
-5.5034e-07
-1.37065e-07
-3.96944e-07
-1.53396e-07
-2.44251e-07
-1.52693e-07
-1.11903e-07
-1.32349e-07
-2.01238e-08
-9.17789e-08
1.50386e-08
-3.51624e-08
1.50386e-08
-3.28957e-08
1.80841e-08
-1.77526e-07
1.80179e-07
-4.3094e-07
3.45313e-07
-7.6301e-07
4.64117e-07
-1.13359e-06
5.22672e-07
-1.50139e-06
5.20566e-07
-1.82903e-06
4.64329e-07
-2.0859e-06
3.64178e-07
-2.24948e-06
2.31983e-07
-2.30603e-06
8.02479e-08
-2.25076e-06
-7.82843e-08
-2.08799e-06
-2.30727e-07
-1.8312e-06
-3.64077e-07
-1.50287e-06
-4.65396e-07
-1.13391e-06
-5.22349e-07
-7.622e-07
-5.24406e-07
-4.29513e-07
-4.65035e-07
-1.76245e-07
-3.45047e-07
-3.23218e-08
-1.79086e-07
-1.72832e-08
-9.03956e-08
1.0848e-07
-3.53248e-07
4.43031e-07
-7.60956e-07
7.53022e-07
-1.26741e-06
9.70573e-07
-1.8175e-06
1.07276e-06
-2.35543e-06
1.05849e-06
-2.8306e-06
9.39505e-07
-3.20132e-06
7.34892e-07
-3.43677e-06
4.67434e-07
-3.51805e-06
1.61532e-07
-3.4386e-06
-1.57734e-07
-3.20438e-06
-4.64947e-07
-2.8339e-06
-7.34561e-07
-2.3579e-06
-9.4139e-07
-1.81845e-06
-1.0618e-06
-1.26676e-06
-1.0761e-06
-7.59291e-07
-9.72502e-07
-3.5158e-07
-7.52758e-07
-8.95805e-08
-4.41085e-07
-1.06864e-07
-1.4294e-07
2.5142e-07
-5.21526e-07
8.21618e-07
-1.07906e-06
1.31055e-06
-1.74922e-06
1.64074e-06
-2.46156e-06
1.7851e-06
-3.14812e-06
1.74505e-06
-3.7487e-06
1.54008e-06
-4.21429e-06
1.20048e-06
-4.50894e-06
7.62083e-07
-4.61067e-06
2.63265e-07
-4.51183e-06
-2.56569e-07
-4.21927e-06
-7.57507e-07
-3.7544e-06
-1.19943e-06
-3.15302e-06
-1.54277e-06
-2.46451e-06
-1.75031e-06
-1.74983e-06
-1.79077e-06
-1.07788e-06
-1.64445e-06
-5.19812e-07
-1.31083e-06
-1.41959e-07
-8.18938e-07
-2.48823e-07
-1.91316e-07
4.42736e-07
-6.8247e-07
1.31277e-06
-1.38726e-06
2.01534e-06
-2.21644e-06
2.46992e-06
-3.08285e-06
2.65151e-06
-3.90688e-06
2.56908e-06
-4.62055e-06
2.25376e-06
-5.16999e-06
1.74991e-06
-5.51638e-06
1.10847e-06
-5.63621e-06
3.83102e-07
-5.52127e-06
-3.71511e-07
-5.17864e-06
-1.10014e-06
-4.63097e-06
-1.7471e-06
-3.91677e-06
-2.25698e-06
-3.09025e-06
-2.57683e-06
-2.22034e-06
-2.66069e-06
-1.38794e-06
-2.47685e-06
-6.81396e-07
-2.01737e-06
-1.90345e-07
-1.30999e-06
-4.39168e-07
-2.38445e-07
6.8118e-07
-8.42002e-07
1.91633e-06
-1.6943e-06
2.86764e-06
-2.68103e-06
3.45666e-06
-3.69697e-06
3.66745e-06
-4.65101e-06
3.52312e-06
-5.46888e-06
3.07163e-06
-6.09387e-06
2.3749e-06
-6.48633e-06
1.50093e-06
-6.62266e-06
5.19429e-07
-6.49451e-06
-4.99664e-07
-6.1086e-06
-1.48604e-06
-5.48727e-06
-2.36843e-06
-4.66957e-06
-3.07468e-06
-3.71244e-06
-3.53396e-06
-2.6913e-06
-3.68183e-06
-1.69903e-06
-3.46912e-06
-8.42734e-07
-2.87367e-06
-2.37823e-07
-1.9149e-06
-6.76991e-07
-2.87347e-07
9.68527e-07
-1.00705e-06
2.63603e-06
-2.0098e-06
3.87039e-06
-3.15363e-06
4.60048e-06
-4.31415e-06
4.82798e-06
-5.38947e-06
4.59843e-06
-6.30098e-06
3.98314e-06
-6.99173e-06
3.06566e-06
-7.4236e-06
1.9328e-06
-7.57452e-06
6.70349e-07
-7.43657e-06
-6.37616e-07
-7.01543e-06
-1.90719e-06
-6.33132e-06
-3.05253e-06
-5.42131e-06
-3.98469e-06
-4.34238e-06
-4.61289e-06
-3.1744e-06
-4.84981e-06
-2.02165e-06
-4.62187e-06
-1.01131e-06
-3.88401e-06
-2.87611e-07
-2.6386e-06
-9.64603e-07
-3.40864e-07
1.30939e-06
-1.18416e-06
3.47933e-06
-2.34182e-06
5.02805e-06
-3.64055e-06
5.8992e-06
-4.9362e-06
6.12363e-06
-6.11793e-06
5.78017e-06
-7.10617e-06
4.97138e-06
-7.84747e-06
3.80695e-06
-8.30848e-06
2.39382e-06
-8.47084e-06
8.32702e-07
-8.32777e-06
-7.80686e-07
-7.8831e-06
-2.35186e-06
-7.15268e-06
-3.78295e-06
-6.16816e-06
-4.96921e-06
-4.98261e-06
-5.79844e-06
-3.67686e-06
-6.15556e-06
-2.36468e-06
-5.93406e-06
-1.19426e-06
-5.05443e-06
-3.42772e-07
-3.49008e-06
-1.30737e-06
-4.01802e-07
1.71119e-06
-1.3793e-06
4.45683e-06
-2.69577e-06
6.34452e-06
-4.14172e-06
7.34516e-06
-5.55354e-06
7.53545e-06
-6.81533e-06
7.04195e-06
-7.85206e-06
6.00812e-06
-8.61931e-06
4.5742e-06
-9.09301e-06
2.86752e-06
-9.26136e-06
1.00106e-06
-9.11978e-06
-9.22271e-07
-8.66926e-06
-2.80238e-06
-7.91836e-06
-4.53385e-06
-6.88868e-06
-5.99889e-06
-5.62358e-06
-7.06354e-06
-4.199e-06
-7.58014e-06
-2.73414e-06
-7.39891e-06
-1.39804e-06
-6.39052e-06
-4.06344e-07
-4.48178e-06
-1.71372e-06
-4.73503e-07
2.1847e-06
-1.59834e-06
5.58167e-06
-3.07392e-06
7.82009e-06
-4.64855e-06
8.91979e-06
-6.14152e-06
9.02842e-06
-7.43904e-06
8.33947e-06
-8.47917e-06
7.04825e-06
-9.23427e-06
5.3293e-06
-9.69542e-06
3.32867e-06
-9.86102e-06
1.16666e-06
-9.72995e-06
-1.05334e-06
-9.29934e-06
-3.23298e-06
-8.56699e-06
-5.26621e-06
-7.53848e-06
-7.02739e-06
-6.23938e-06
-8.36264e-06
-4.73169e-06
-9.08783e-06
-3.1324e-06
-8.99821e-06
-1.62891e-06
-7.89401e-06
-4.81884e-07
-5.6288e-06
-2.1956e-06
-5.60857e-07
2.74555e-06
-1.84816e-06
6.86897e-06
-3.47466e-06
9.44659e-06
-5.14059e-06
1.05857e-05
-6.65487e-06
1.05427e-05
-7.91801e-06
9.60262e-06
-8.89365e-06
8.02389e-06
-9.58099e-06
6.01663e-06
-9.99323e-06
3.74091e-06
-1.0143e-05
1.31645e-06
-1.00342e-05
-1.16218e-06
-9.65904e-06
-3.60812e-06
-9.00096e-06
-5.9243e-06
-8.04266e-06
-7.98569e-06
-6.7815e-06
-9.6238e-06
-5.25237e-06
-1.0617e-05
-3.55694e-06
-1.06936e-05
-1.89367e-06
-9.55729e-06
-5.7445e-07
-6.94802e-06
-2.77005e-06
-6.72012e-07
3.41757e-06
-2.13764e-06
8.3346e-06
-3.89007e-06
1.1199e-05
-5.57908e-06
1.22747e-05
-7.01842e-06
1.1982e-05
-8.14256e-06
1.07268e-05
-8.95753e-06
8.83886e-06
-9.50114e-06
6.56024e-06
-9.81572e-06
4.0555e-06
-9.93175e-06
1.43247e-06
-9.85936e-06
-1.23456e-06
-9.58556e-06
-3.88193e-06
-9.07635e-06
-6.4335e-06
-8.28498e-06
-8.77706e-06
-7.16876e-06
-1.074e-05
-5.71778e-06
-1.20679e-05
-3.99739e-06
-1.2414e-05
-2.20048e-06
-1.13542e-05
-6.92239e-07
-8.45626e-06
-3.46229e-06
-8.21117e-07
4.23868e-06
-2.47773e-06
9.99121e-06
-4.29904e-06
1.30203e-05
-5.89386e-06
1.38696e-05
-7.11126e-06
1.31994e-05
-7.94915e-06
1.15646e-05
-8.47636e-06
9.36607e-06
-8.78035e-06
6.86424e-06
-8.93731e-06
4.21246e-06
-8.99715e-06
1.49232e-06
-8.97695e-06
-1.25477e-06
-8.85877e-06
-4.00011e-06
-8.5907e-06
-6.70157e-06
-8.09257e-06
-9.27518e-06
-7.27086e-06
-1.15617e-05
-6.04995e-06
-1.32889e-05
-4.42763e-06
-1.40363e-05
-2.5583e-06
-1.32235e-05
-8.49221e-07
-1.01653e-05
-4.31151e-06
-1.03216e-06
5.27084e-06
-2.87691e-06
1.1836e-05
-4.64927e-06
1.47927e-05
-5.95698e-06
1.51773e-05
-6.73972e-06
1.39822e-05
-7.09845e-06
1.19234e-05
-7.18444e-06
9.45206e-06
-7.14028e-06
6.82008e-06
-7.07452e-06
4.14669e-06
-7.05363e-06
1.47142e-06
-7.10061e-06
-1.20779e-06
-7.19457e-06
-3.90615e-06
-7.26962e-06
-6.62652e-06
-7.21492e-06
-9.32989e-06
-6.88174e-06
-1.18949e-05
-6.1093e-06
-1.40613e-05
-4.78686e-06
-1.53588e-05
-2.97155e-06
-1.50388e-05
-1.06872e-06
-1.20682e-05
-5.38023e-06
-1.34097e-06
6.61181e-06
-3.32076e-06
1.38158e-05
-4.81349e-06
1.62854e-05
-5.53129e-06
1.58951e-05
-5.59313e-06
1.4044e-05
-5.24537e-06
1.15756e-05
-4.73001e-06
8.9367e-06
-4.23597e-06
6.32604e-06
-3.89104e-06
3.80176e-06
-3.7682e-06
1.34859e-06
-3.89278e-06
-1.08321e-06
-4.24485e-06
-3.55408e-06
-4.75535e-06
-6.11602e-06
-5.29731e-06
-8.78793e-06
-5.67766e-06
-1.15146e-05
-5.64405e-06
-1.40949e-05
-4.93493e-06
-1.60679e-05
-3.41819e-06
-1.65556e-05
-1.38477e-06
-1.41016e-05
-6.76501e-06
-1.77966e-06
8.39147e-06
-3.70221e-06
1.57383e-05
-4.48844e-06
1.70717e-05
-4.17614e-06
1.55828e-05
-3.1775e-06
1.30454e-05
-1.90469e-06
1.03028e-05
-6.67142e-07
7.69915e-06
3.34267e-07
5.32463e-06
9.8194e-07
3.15409e-06
1.21514e-06
1.11539e-06
1.01287e-06
-8.80937e-07
3.88353e-07
-2.92957e-06
-6.0466e-07
-5.123e-06
-1.85345e-06
-7.53914e-06
-3.15752e-06
-1.02105e-05
-4.20022e-06
-1.30522e-05
-4.55229e-06
-1.57158e-05
-3.77808e-06
-1.73298e-05
-1.82482e-06
-1.60548e-05
-8.58983e-06
-2.29675e-06
1.06882e-05
-3.62678e-06
1.70683e-05
-2.98238e-06
1.64273e-05
-1.09029e-06
1.36907e-05
1.26884e-06
1.06862e-05
3.57416e-06
7.99749e-06
5.53124e-06
5.74207e-06
6.99471e-06
3.86116e-06
7.90162e-06
2.24717e-06
8.22783e-06
7.89181e-07
7.96509e-06
-6.18199e-07
7.11393e-06
-2.07841e-06
5.6904e-06
-3.69947e-06
3.74919e-06
-5.59793e-06
1.42906e-06
-7.89035e-06
-9.763e-07
-1.06469e-05
-2.93477e-06
-1.37574e-05
-3.63873e-06
-1.66258e-05
-2.32672e-06
-1.73669e-05
-1.09165e-05
-2.50251e-06
1.31907e-05
-1.93608e-06
1.65019e-05
1.19332e-06
1.32979e-05
5.11738e-06
9.76662e-06
8.85292e-06
6.95069e-06
1.19939e-05
4.85651e-06
1.44176e-05
3.31837e-06
1.61218e-05
2.15701e-06
1.71403e-05
1.22867e-06
1.75034e-05
4.26026e-07
1.72214e-05
-3.36204e-07
1.62796e-05
-1.13658e-06
1.46418e-05
-2.06164e-06
1.22656e-05
-3.2218e-06
9.14242e-06
-4.76713e-06
5.38392e-06
-6.88838e-06
1.39311e-06
-9.76654e-06
-1.83165e-06
-1.34011e-05
-2.48282e-06
-1.67157e-05
-1.33994e-05
-5.77734e-07
1.37685e-05
4.63786e-06
1.12863e-05
1.10743e-05
6.86146e-06
1.66513e-05
4.1896e-06
2.09803e-05
2.62168e-06
2.41683e-05
1.6685e-06
2.64192e-05
1.06747e-06
2.79121e-05
6.64079e-07
2.87731e-05
3.67699e-07
2.90748e-05
1.24296e-07
2.88411e-05
-1.02501e-07
2.80485e-05
-3.43921e-07
2.66232e-05
-6.36338e-07
2.44354e-05
-1.03403e-06
2.12973e-05
-1.62901e-06
1.69898e-05
-2.58086e-06
1.13879e-05
-4.16472e-06
4.87116e-06
-6.88427e-06
-4.6914e-07
-1.13754e-05
-1.38685e-05
1.37685e-05
2.50548e-05
3.19162e-05
3.61058e-05
3.87275e-05
4.0396e-05
4.14635e-05
4.21276e-05
4.24953e-05
4.26196e-05
4.2517e-05
4.21731e-05
4.15368e-05
4.05028e-05
3.88737e-05
3.62929e-05
3.21282e-05
2.52439e-05
1.38685e-05
)
;

boundaryField
{
    movingWall
    {
        type            calculated;
        value           uniform 0;
    }
    fixedWalls
    {
        type            calculated;
        value           uniform 0;
    }
    frontAndBack
    {
        type            empty;
        value           nonuniform 0();
    }
}


// ************************************************************************* //
