/*--------------------------------*- C++ -*----------------------------------*\
  =========                 |
  \\      /  F ield         | OpenFOAM: The Open Source CFD Toolbox
   \\    /   O peration     | Website:  https://openfoam.org
    \\  /    A nd           | Version:  6
     \\/     M anipulation  |
\*---------------------------------------------------------------------------*/
FoamFile
{
    version     2.0;
    format      ascii;
    class       volScalarField;
    location    "0.02";
    object      p;
}
// * * * * * * * * * * * * * * * * * * * * * * * * * * * * * * * * * * * * * //

dimensions      [0 2 -2 0 0 0 0];

internalField   nonuniform List<scalar> 
400
(
-1.10207e-08
-0.00422385
-0.00839528
-0.0103396
-0.00911423
-0.00446309
0.0034157
0.014035
0.0267392
0.0407731
0.0553203
0.0695282
0.0825342
0.0935044
0.101694
0.106544
0.10783
0.105841
0.101597
0.0973436
0.00413964
-0.000205255
-0.00337016
-0.00433709
-0.00272287
0.00168032
0.00876388
0.0181638
0.0293524
0.0416943
0.054484
0.0669783
0.0784316
0.0881398
0.0954973
0.100078
0.101747
0.100739
0.097506
0.0931365
0.00854327
0.00266223
-0.000810884
-0.00162471
5.86441e-05
0.00432629
0.0110586
0.0199186
0.0304284
0.0420109
0.0540192
0.0657671
0.0765646
0.0857599
0.0927896
0.0972456
0.0989768
0.0980936
0.0945113
0.088576
0.0113953
0.00352335
-0.000872732
-0.0019657
-0.000349789
0.00393431
0.0107087
0.019606
0.0301443
0.0417564
0.0538097
0.0656299
0.0765316
0.0858552
0.0930102
0.0975358
0.0992069
0.098004
0.0934281
0.085442
0.0118016
0.00186615
-0.00362095
-0.00508987
-0.00348956
0.00102128
0.00819027
0.0175936
0.0287154
0.0409695
0.053709
0.0662418
0.077854
0.0878399
0.09554
0.1004
0.102093
0.100474
0.0947088
0.0845555
0.00916882
-0.00297125
-0.00964547
-0.0114683
-0.00972247
-0.00468732
0.00329369
0.0137174
0.0260107
0.0395459
0.0536398
0.06756
0.080537
0.0917871
0.100543
0.106117
0.108045
0.106043
0.0989556
0.0864188
0.00296473
-0.011696
-0.0196615
-0.0217354
-0.0195815
-0.0136263
-0.00433027
0.00769882
0.0218104
0.0373191
0.0534921
0.0695415
0.084624
0.0978499
0.108305
0.115117
0.117636
0.115389
0.106831
0.091478
-0.00747479
-0.0251678
-0.0345398
-0.0366661
-0.033719
-0.026329
-0.0151134
-0.00081313
0.0158271
0.0340572
0.0530926
0.0720883
0.0901198
0.106172
0.119145
0.12792
0.13158
0.129368
0.119184
0.100334
-0.0231283
-0.0445598
-0.0554314
-0.0572661
-0.0529688
-0.04347
-0.0295991
-0.0122628
0.0076895
0.0294484
0.0521911
0.0750329
0.0969788
0.116884
0.133427
0.145167
0.150808
0.149149
0.137231
0.113954
-0.0454896
-0.0715322
-0.0838838
-0.0848302
-0.078362
-0.0658535
-0.0484182
-0.027161
-0.00303594
0.0231106
0.0504549
0.0781148
0.105066
0.130053
0.15152
0.16762
0.176527
0.176348
0.162777
0.133931
-0.0768474
-0.108459
-0.121971
-0.120983
-0.111104
-0.094355
-0.0722138
-0.0460084
-0.0167781
0.0146415
0.0474926
0.0809756
0.114119
0.145629
0.173732
0.196118
0.210246
0.213178
0.1985
0.162855
-0.120734
-0.158752
-0.172442
-0.167681
-0.15249
-0.129785
-0.101486
-0.0691409
-0.0338202
0.00373494
0.0429391
0.0832018
0.123747
0.163384
0.200228
0.231503
0.253787
0.262626
0.248366
0.204933
-0.182704
-0.227342
-0.238859
-0.227125
-0.203681
-0.172614
-0.136306
-0.0964547
-0.0540506
-0.00960277
0.0366306
0.0844496
0.133488
0.182906
0.230944
0.274514
0.309242
0.328641
0.318236
0.267022
-0.271841
-0.321406
-0.325628
-0.301414
-0.265218
-0.222454
-0.175828
-0.12698
-0.0765965
-0.0247411
0.0288666
0.0846508
0.142943
0.203618
0.26549
0.325582
0.378799
0.416264
0.41676
0.360569
-0.403763
-0.451368
-0.437601
-0.391627
-0.336026
-0.277174
-0.217578
-0.158334
-0.0994106
-0.0401068
0.0206638
0.0842139
0.151903
0.224792
0.302951
0.384401
0.464197
0.531429
0.556575
0.505217
-0.605925
-0.631735
-0.578814
-0.496199
-0.411967
-0.331818
-0.256761
-0.186333
-0.119092
-0.0531201
0.0137709
0.0840274
0.160338
0.245459
0.341622
0.449342
0.565787
0.680024
0.755063
0.734337
-0.927294
-0.880826
-0.750167
-0.609337
-0.484945
-0.378296
-0.28642
-0.20546
-0.131481
-0.0608072
0.0101095
0.0849928
0.168047
0.264163
0.378805
0.517139
0.681716
0.866112
1.03408
1.10416
-1.47714
-1.22037
-0.93955
-0.713795
-0.539052
-0.403897
-0.297397
-0.209577
-0.132724
-0.0610224
0.0104268
0.0864725
0.17272
0.276371
0.407144
0.577525
0.800071
1.08282
1.42255
1.73496
-2.54596
-1.66119
-1.07564
-0.745063
-0.529607
-0.380377
-0.272976
-0.18951
-0.118504
-0.0527786
0.0129461
0.0836423
0.165271
0.266358
0.400444
0.588834
0.860664
1.2658
1.94166
2.92751
-4.37161
-2.07827
-1.01402
-0.610383
-0.406913
-0.284153
-0.203264
-0.142098
-0.0889258
-0.037891
0.0145962
0.0717709
0.137844
0.21978
0.330814
0.496606
0.765217
1.26419
2.44318
4.85037
)
;

boundaryField
{
    movingWall
    {
        type            zeroGradient;
    }
    fixedWalls
    {
        type            zeroGradient;
    }
    frontAndBack
    {
        type            empty;
    }
}


// ************************************************************************* //
