/*--------------------------------*- C++ -*----------------------------------*\
  =========                 |
  \\      /  F ield         | OpenFOAM: The Open Source CFD Toolbox
   \\    /   O peration     | Website:  https://openfoam.org
    \\  /    A nd           | Version:  6
     \\/     M anipulation  |
\*---------------------------------------------------------------------------*/
FoamFile
{
    version     2.0;
    format      ascii;
    class       surfaceScalarField;
    location    "0.02";
    object      phi;
}
// * * * * * * * * * * * * * * * * * * * * * * * * * * * * * * * * * * * * * //

dimensions      [0 3 -1 0 0 0 0];

internalField   nonuniform List<scalar> 
760
(
3.86304e-09
-3.86309e-09
-3.42079e-08
3.8071e-08
-1.10281e-07
7.60726e-08
-2.08642e-07
9.8361e-08
-3.1439e-07
1.05748e-07
-4.15411e-07
1.0102e-07
-5.02606e-07
8.7196e-08
-5.69582e-07
6.69759e-08
-6.12109e-07
4.2527e-08
-6.27663e-07
1.55533e-08
-6.15165e-07
-1.24985e-08
-5.74965e-07
-4.01998e-08
-5.09059e-07
-6.59061e-08
-4.21501e-07
-8.7558e-08
-3.18938e-07
-1.02562e-07
-2.1109e-07
-1.07848e-07
-1.10865e-07
-1.00225e-07
-3.38068e-08
-7.70578e-08
4.26773e-09
-3.80745e-08
4.26777e-09
-3.65771e-08
3.27141e-08
-1.58093e-07
1.59587e-07
-3.50041e-07
2.68021e-07
-5.84834e-07
3.33154e-07
-8.33321e-07
3.54236e-07
-1.06987e-06
3.37573e-07
-1.27414e-06
2.91459e-07
-1.43115e-06
2.23985e-07
-1.53072e-06
1.42099e-07
-1.56674e-06
5.15794e-08
-1.53674e-06
-4.2506e-08
-1.4418e-06
-1.35138e-07
-1.28703e-06
-2.20677e-07
-1.08226e-06
-2.92327e-07
-8.429e-07
-3.41921e-07
-5.90443e-07
-3.60306e-07
-3.51974e-07
-3.38693e-07
-1.57849e-07
-2.71183e-07
-3.59977e-08
-1.59925e-07
-3.17301e-08
-7.6344e-08
1.09058e-07
-2.76489e-07
3.59732e-07
-5.67647e-07
5.59179e-07
-9.11206e-07
6.76713e-07
-1.2686e-06
7.11626e-07
-1.60589e-06
6.74862e-07
-1.89583e-06
5.814e-07
-2.11814e-06
4.46302e-07
-2.25891e-06
2.82867e-07
-2.30974e-06
1.02407e-07
-2.26723e-06
-8.50198e-08
-2.13292e-06
-2.69442e-07
-1.91384e-06
-4.39754e-07
-1.6234e-06
-5.82768e-07
-1.2824e-06
-6.82921e-07
-9.19561e-07
-7.23149e-07
-5.70779e-07
-6.87475e-07
-2.76365e-07
-5.65598e-07
-7.55702e-08
-3.6072e-07
-1.073e-07
-1.08612e-07
2.1767e-07
-3.79545e-07
6.30666e-07
-7.60831e-07
9.40464e-07
-1.20096e-06
1.11685e-06
-1.65226e-06
1.16293e-06
-2.07415e-06
1.09675e-06
-2.43459e-06
9.41841e-07
-2.70998e-06
7.21691e-07
-2.88419e-06
4.57078e-07
-2.9475e-06
1.6571e-07
-2.89585e-06
-1.36667e-07
-2.73084e-06
-4.34453e-07
-2.46032e-06
-7.10271e-07
-2.09963e-06
-9.43465e-07
-1.67291e-06
-1.10964e-06
-1.21405e-06
-1.18201e-06
-7.66301e-07
-1.13522e-06
-3.79906e-07
-9.51993e-07
-1.07595e-07
-6.33031e-07
-2.14895e-07
-1.36955e-07
3.54625e-07
-4.75157e-07
9.68868e-07
-9.44248e-07
1.40956e-06
-1.4783e-06
1.6509e-06
-2.01958e-06
1.70421e-06
-2.52099e-06
1.59816e-06
-2.94657e-06
1.36742e-06
-3.27052e-06
1.04564e-06
-3.47555e-06
6.62106e-07
-3.55123e-06
2.41396e-07
-3.49301e-06
-1.94886e-07
-3.30206e-06
-6.25411e-07
-2.9861e-06
-1.02623e-06
-2.56112e-06
-1.36845e-06
-2.05338e-06
-1.61738e-06
-1.50119e-06
-1.7342e-06
-9.55352e-07
-1.68106e-06
-4.77528e-07
-1.42982e-06
-1.36023e-07
-9.74536e-07
-3.50917e-07
-1.6575e-07
5.20375e-07
-5.74585e-07
1.3777e-06
-1.13692e-06
1.97189e-06
-1.77037e-06
2.28435e-06
-2.40568e-06
2.33952e-06
-2.9888e-06
2.18128e-06
-3.48027e-06
1.85889e-06
-3.85298e-06
1.41836e-06
-4.08936e-06
8.98489e-07
-4.17888e-06
3.30909e-07
-4.11649e-06
-2.57272e-07
-3.90243e-06
-8.39469e-07
-3.54331e-06
-1.38535e-06
-3.05448e-06
-1.85728e-06
-2.46323e-06
-2.20863e-06
-1.8119e-06
-2.38553e-06
-1.15973e-06
-2.33323e-06
-5.82042e-07
-2.0075e-06
-1.6571e-07
-1.39087e-06
-5.16628e-07
-1.9921e-07
7.19584e-07
-6.89541e-07
1.86803e-06
-1.35842e-06
2.64077e-06
-2.10369e-06
3.02962e-06
-2.84265e-06
3.07847e-06
-3.51384e-06
2.85247e-06
-4.07496e-06
2.42001e-06
-4.49873e-06
1.84213e-06
-4.76842e-06
1.16818e-06
-4.87411e-06
4.36598e-07
-4.8104e-06
-3.20976e-07
-4.57597e-06
-1.0739e-06
-4.17502e-06
-1.78631e-06
-3.62061e-06
-2.41168e-06
-2.93949e-06
-2.88975e-06
-2.17729e-06
-3.14773e-06
-1.40254e-06
-3.10798e-06
-7.07197e-07
-2.70284e-06
-2.01511e-07
-1.89655e-06
-7.18139e-07
-2.41482e-07
9.61066e-07
-8.31657e-07
2.45821e-06
-1.62755e-06
3.43666e-06
-2.50215e-06
3.90422e-06
-3.35704e-06
3.93337e-06
-4.12343e-06
3.61886e-06
-4.75757e-06
3.05414e-06
-5.23391e-06
2.31847e-06
-5.53833e-06
1.4726e-06
-5.66268e-06
5.60944e-07
-5.60147e-06
-3.82184e-07
-5.3511e-06
-1.32427e-06
-4.91165e-06
-2.22575e-06
-4.29147e-06
-3.03186e-06
-3.51411e-06
-3.66711e-06
-2.62664e-06
-4.0352e-06
-1.70702e-06
-4.0276e-06
-8.67337e-07
-3.54252e-06
-2.48468e-07
-2.51542e-06
-9.66607e-07
-2.96944e-07
1.25801e-06
-1.01259e-06
3.17386e-06
-1.96161e-06
4.38567e-06
-2.98508e-06
4.9277e-06
-3.96674e-06
4.91502e-06
-4.83163e-06
4.48375e-06
-5.5374e-06
3.75991e-06
-6.06347e-06
2.84454e-06
-6.40103e-06
1.81017e-06
-6.54549e-06
7.05404e-07
-6.49189e-06
-4.35785e-07
-6.23359e-06
-1.58257e-06
-5.7644e-06
-2.69495e-06
-5.08442e-06
-3.71184e-06
-4.20972e-06
-4.54182e-06
-3.18482e-06
-5.0601e-06
-2.09562e-06
-5.11681e-06
-1.07759e-06
-4.56055e-06
-3.12215e-07
-3.2808e-06
-1.27882e-06
-3.7066e-07
1.62867e-06
-1.24426e-06
4.04746e-06
-2.37525e-06
5.51666e-06
-3.56398e-06
6.11643e-06
-4.67529e-06
6.02633e-06
-5.63151e-06
5.43997e-06
-6.39684e-06
4.52523e-06
-6.96062e-06
3.40832e-06
-7.32335e-06
2.1729e-06
-7.48659e-06
8.68638e-07
-7.44697e-06
-4.75399e-07
-7.19426e-06
-1.83528e-06
-6.71347e-06
-3.17574e-06
-5.99185e-06
-4.43346e-06
-5.03146e-06
-5.5022e-06
-3.86722e-06
-6.22434e-06
-2.5879e-06
-6.39613e-06
-1.35387e-06
-5.79458e-06
-3.99492e-07
-4.23517e-06
-1.67831e-06
-4.68998e-07
2.09767e-06
-1.53869e-06
5.11716e-06
-2.87766e-06
6.85563e-06
-4.23604e-06
7.4748e-06
-5.46187e-06
7.25216e-06
-6.48227e-06
6.46038e-06
-7.27636e-06
5.31932e-06
-7.85053e-06
3.98249e-06
-8.21976e-06
2.54213e-06
-8.3951e-06
1.04398e-06
-8.37648e-06
-4.94025e-07
-8.14992e-06
-2.06184e-06
-7.68932e-06
-3.63634e-06
-6.96377e-06
-5.159e-06
-5.9526e-06
-6.51338e-06
-4.6696e-06
-7.50733e-06
-3.19555e-06
-7.87019e-06
-1.71195e-06
-7.27817e-06
-5.18727e-07
-5.4284e-06
-2.19704e-06
-6.00572e-07
2.69824e-06
-1.90709e-06
6.42368e-06
-3.46677e-06
8.4153e-06
-4.97248e-06
8.98052e-06
-6.26474e-06
8.54441e-06
-7.28935e-06
7.48499e-06
-8.05283e-06
6.0828e-06
-8.58772e-06
4.51738e-06
-8.92931e-06
2.88372e-06
-9.10171e-06
1.21638e-06
-9.11022e-06
-4.8551e-07
-8.93801e-06
-2.23405e-06
-8.54664e-06
-4.0277e-06
-7.88236e-06
-5.82329e-06
-6.89162e-06
-7.50412e-06
-5.55072e-06
-8.84823e-06
-3.91238e-06
-9.50852e-06
-2.16472e-06
-9.02584e-06
-6.80751e-07
-6.91238e-06
-2.87779e-06
-7.77961e-07
3.4762e-06
-2.35754e-06
8.00326e-06
-4.11827e-06
1.0176e-05
-5.69915e-06
1.05614e-05
-6.95603e-06
9.8013e-06
-7.87673e-06
8.40569e-06
-8.51184e-06
6.7179e-06
-8.92957e-06
4.93512e-06
-9.1903e-06
3.14445e-06
-9.33368e-06
1.35976e-06
-9.37241e-06
-4.46778e-07
-9.28894e-06
-2.31752e-06
-9.03406e-06
-4.28258e-06
-8.52953e-06
-6.32782e-06
-7.68023e-06
-8.35343e-06
-6.40506e-06
-1.01234e-05
-4.69695e-06
-1.12166e-05
-2.71635e-06
-1.10064e-05
-8.99917e-07
-8.72881e-06
-3.77771e-06
-1.02075e-06
4.49695e-06
-2.88903e-06
9.87154e-06
-4.76492e-06
1.20519e-05
-6.26447e-06
1.20609e-05
-7.30552e-06
1.08423e-05
-7.95229e-06
9.05247e-06
-8.31761e-06
7.08322e-06
-8.51167e-06
5.12917e-06
-8.62015e-06
3.25294e-06
-8.69724e-06
1.43685e-06
-8.76376e-06
-3.80258e-07
-8.8051e-06
-2.27618e-06
-8.76729e-06
-4.32039e-06
-8.55294e-06
-6.54217e-06
-8.02377e-06
-8.88259e-06
-7.02351e-06
-1.11237e-05
-5.44281e-06
-1.27973e-05
-3.35012e-06
-1.30991e-05
-1.19551e-06
-1.08834e-05
-4.97322e-06
-1.35836e-06
5.85531e-06
-3.47343e-06
1.19866e-05
-5.25407e-06
1.38326e-05
-6.38613e-06
1.3193e-05
-6.93043e-06
1.13867e-05
-7.06902e-06
9.19105e-06
-6.98826e-06
7.00246e-06
-6.83571e-06
4.97663e-06
-6.71287e-06
3.13009e-06
-6.68069e-06
1.40467e-06
-6.76568e-06
-2.95268e-07
-6.96078e-06
-2.08108e-06
-7.21905e-06
-4.06212e-06
-7.44069e-06
-6.32053e-06
-7.45862e-06
-8.86466e-06
-7.03854e-06
-1.15437e-05
-5.92663e-06
-1.39092e-05
-3.99923e-06
-1.50265e-05
-1.58995e-06
-1.32927e-05
-6.56317e-06
-1.81963e-06
7.67494e-06
-3.99509e-06
1.41621e-05
-5.25366e-06
1.50911e-05
-5.55881e-06
1.34981e-05
-5.22806e-06
1.10559e-05
-4.58939e-06
8.55239e-06
-3.88895e-06
6.30201e-06
-3.28493e-06
4.37261e-06
-2.8697e-06
2.71486e-06
-2.69391e-06
1.22888e-06
-2.78255e-06
-2.06629e-07
-3.14012e-06
-1.72351e-06
-3.7435e-06
-3.45874e-06
-4.52075e-06
-5.54329e-06
-5.31586e-06
-8.06955e-06
-5.8497e-06
-1.10099e-05
-5.71242e-06
-1.40465e-05
-4.47004e-06
-1.62689e-05
-2.08636e-06
-1.56764e-05
-8.64953e-06
-2.36515e-06
1.00401e-05
-4.06889e-06
1.58658e-05
-4.04443e-06
1.50667e-05
-2.89659e-06
1.23503e-05
-1.2921e-06
9.45141e-06
3.32505e-07
6.92778e-06
1.7386e-06
4.89591e-06
2.81623e-06
3.29498e-06
3.52329e-06
2.0078e-06
3.84423e-06
9.07947e-07
3.76696e-06
-1.29361e-07
3.27429e-06
-1.23083e-06
2.34892e-06
-2.53337e-06
9.96297e-07
-4.19067e-06
-7.06336e-07
-6.36691e-06
-2.52747e-06
-9.18878e-06
-3.97794e-06
-1.25961e-05
-4.25576e-06
-1.59911e-05
-2.57854e-06
-1.73536e-05
-1.12281e-05
-2.64564e-06
1.26857e-05
-2.55435e-06
1.57745e-05
-8.78195e-08
1.26001e-05
3.1164e-06
9.14609e-06
6.16898e-06
6.39883e-06
8.72144e-06
4.37533e-06
1.06859e-05
2.93146e-06
1.20839e-05
1.89702e-06
1.29661e-05
1.12551e-06
1.33728e-05
5.01305e-07
1.33146e-05
-7.1153e-08
1.27655e-05
-6.8177e-07
1.16627e-05
-1.43053e-06
9.91781e-06
-2.4458e-06
7.45517e-06
-3.90428e-06
4.30449e-06
-6.0381e-06
7.92369e-07
-9.08393e-06
-2.12031e-06
-1.30784e-05
-2.59657e-06
-1.68773e-05
-1.38246e-05
-8.71941e-07
1.35577e-05
3.87956e-06
1.1023e-05
9.80819e-06
6.67151e-06
1.48945e-05
4.05979e-06
1.87856e-05
2.50772e-06
2.16044e-05
1.55651e-06
2.35685e-05
9.67373e-07
2.48738e-05
5.91681e-07
2.5663e-05
3.363e-07
2.60215e-05
1.42881e-07
2.59792e-05
-2.88814e-08
2.55108e-05
-2.13414e-07
2.45301e-05
-4.4983e-07
2.28798e-05
-7.95418e-07
2.03231e-05
-1.34762e-06
1.65657e-05
-2.28069e-06
1.13871e-05
-3.90531e-06
5.07985e-06
-6.77116e-06
-2.98115e-07
-1.14994e-05
-1.41228e-05
1.35577e-05
2.45807e-05
3.12522e-05
3.5312e-05
3.78197e-05
3.93762e-05
4.03436e-05
4.09353e-05
4.12716e-05
4.14145e-05
4.13856e-05
4.11722e-05
4.07223e-05
3.99269e-05
3.85793e-05
3.62986e-05
3.23933e-05
2.56221e-05
1.41228e-05
)
;

boundaryField
{
    movingWall
    {
        type            calculated;
        value           uniform 0;
    }
    fixedWalls
    {
        type            calculated;
        value           uniform 0;
    }
    frontAndBack
    {
        type            empty;
        value           nonuniform 0();
    }
}


// ************************************************************************* //
