/*--------------------------------*- C++ -*----------------------------------*\
  =========                 |
  \\      /  F ield         | OpenFOAM: The Open Source CFD Toolbox
   \\    /   O peration     | Website:  https://openfoam.org
    \\  /    A nd           | Version:  6
     \\/     M anipulation  |
\*---------------------------------------------------------------------------*/
FoamFile
{
    version     2.0;
    format      ascii;
    class       volVectorField;
    location    "0.02";
    object      U;
}
// * * * * * * * * * * * * * * * * * * * * * * * * * * * * * * * * * * * * * //

dimensions      [0 1 -1 0 0 0 0];

internalField   nonuniform List<vector> 
400
(
(0.000117083 -0.000116316 0)
(-0.000149932 0.000201843 0)
(-0.00132647 0.000517808 0)
(-0.00313094 0.000703167 0)
(-0.00522684 0.000766157 0)
(-0.00733845 0.000734078 0)
(-0.00925346 0.000633517 0)
(-0.0108181 0.0004865 0)
(-0.0119277 0.000309521 0)
(-0.0125162 0.000114735 0)
(-0.0125481 -8.79841e-05 0)
(-0.0120158 -0.000288926 0)
(-0.0109414 -0.000476549 0)
(-0.0093838 -0.00063569 0)
(-0.00744818 -0.000746242 0)
(-0.00529764 -0.000783029 0)
(-0.00315959 -0.000718002 0)
(-0.00132491 -0.000525252 0)
(-0.000138914 -0.000201404 0)
(0.000122917 0.000119834 0)
(-0.000180707 0.000130454 0)
(-0.00158305 0.00160265 0)
(-0.00480351 0.00293605 0)
(-0.00922111 0.00374077 0)
(-0.0141845 0.00401113 0)
(-0.0191411 0.00383339 0)
(-0.0236309 0.00331257 0)
(-0.0273016 0.00254684 0)
(-0.0299047 0.00161763 0)
(-0.0312802 0.000590679 0)
(-0.0313435 -0.000477311 0)
(-0.0300798 -0.00153031 0)
(-0.0275484 -0.00250455 0)
(-0.0238949 -0.00332165 0)
(-0.0193686 -0.00388508 0)
(-0.0143386 -0.00408354 0)
(-0.00929287 -0.00380602 0)
(-0.00481322 -0.0029716 0)
(-0.00156786 -0.00160405 0)
(-0.000171679 -0.000116638 0)
(-0.000495563 0.00126848 0)
(-0.00301107 0.00483375 0)
(-0.00806369 0.00779421 0)
(-0.0146315 0.00957059 0)
(-0.0218217 0.0101323 0)
(-0.0289143 0.00964123 0)
(-0.0352998 0.00832069 0)
(-0.0405033 0.00639376 0)
(-0.0441864 0.0040555 0)
(-0.0461297 0.00147041 0)
(-0.0462171 -0.00121589 0)
(-0.044429 -0.0038591 0)
(-0.0408473 -0.00629801 0)
(-0.0356713 -0.00834023 0)
(-0.0292392 -0.00975732 0)
(-0.0220471 -0.0102971 0)
(-0.0147416 -0.00972233 0)
(-0.00808349 -0.00788176 0)
(-0.00299204 -0.0048435 0)
(-0.000483534 -0.00124125 0)
(-0.000739189 0.00313786 0)
(-0.00422424 0.00958678 0)
(-0.0109466 0.0145766 0)
(-0.0194494 0.0174809 0)
(-0.0285864 0.0183042 0)
(-0.0374928 0.0173213 0)
(-0.0454501 0.0149059 0)
(-0.0519034 0.0114357 0)
(-0.0564605 0.00724591 0)
(-0.0588678 0.00262343 0)
(-0.0589901 -0.002176 0)
(-0.0568013 -0.00689875 0)
(-0.0523912 -0.0112629 0)
(-0.0459848 -0.0149345 0)
(-0.0379713 -0.0175214 0)
(-0.0289306 -0.0185949 0)
(-0.0196297 -0.0177552 0)
(-0.0109908 -0.0147421 0)
(-0.0042027 -0.00961292 0)
(-0.000722478 -0.00309124 0)
(-0.000940681 0.00559803 0)
(-0.00532031 0.0156806 0)
(-0.0136592 0.0230784 0)
(-0.0240517 0.027222 0)
(-0.0350703 0.0282352 0)
(-0.0456971 0.0265657 0)
(-0.055116 0.0227807 0)
(-0.0627144 0.0174421 0)
(-0.0680697 0.0110452 0)
(-0.0709118 0.0040113 0)
(-0.0710944 -0.00328606 0)
(-0.0685817 -0.0104769 0)
(-0.0634566 -0.0171485 0)
(-0.0559462 -0.0228088 0)
(-0.0464638 -0.0268746 0)
(-0.0356507 -0.0287027 0)
(-0.0243873 -0.0276791 0)
(-0.0137746 -0.023371 0)
(-0.00531125 -0.0157454 0)
(-0.000920493 -0.00552919 0)
(-0.00113944 0.00861305 0)
(-0.00644702 0.0231177 0)
(-0.0164985 0.033348 0)
(-0.0288988 0.0388532 0)
(-0.0418985 0.0399661 0)
(-0.0543072 0.0373876 0)
(-0.0652132 0.0319376 0)
(-0.0739615 0.0244007 0)
(-0.0801184 0.0154525 0)
(-0.0834135 0.00565463 0)
(-0.0836959 -0.00450282 0)
(-0.0809158 -0.0145372 0)
(-0.0751327 -0.0239036 0)
(-0.0665519 -0.0319388 0)
(-0.0555844 -0.0378385 0)
(-0.0429158 -0.0406923 0)
(-0.0295421 -0.0395988 0)
(-0.0167751 -0.0338637 0)
(-0.00648396 -0.0232769 0)
(-0.00112061 -0.0085294 0)
(-0.001372 0.0122346 0)
(-0.00775556 0.0320435 0)
(-0.0197768 0.0455815 0)
(-0.0344572 0.0525689 0)
(-0.0496639 0.053655 0)
(-0.064013 0.0498964 0)
(-0.0765024 0.0424445 0)
(-0.086455 0.0323552 0)
(-0.0934511 0.0205047 0)
(-0.0972398 0.00759583 0)
(-0.0976753 -0.00577766 0)
(-0.0946882 -0.0190359 0)
(-0.0882953 -0.0315111 0)
(-0.0786485 -0.0423615 0)
(-0.0661216 -0.0505268 0)
(-0.0514174 -0.0547613 0)
(-0.0356447 -0.0537746 0)
(-0.0203611 -0.0464895 0)
(-0.00789687 -0.0324101 0)
(-0.00136425 -0.0121652 0)
(-0.00167412 0.016597 0)
(-0.00939749 0.0427505 0)
(-0.023803 0.0601207 0)
(-0.0411647 0.0686785 0)
(-0.0588819 0.0695356 0)
(-0.0753611 0.0642441 0)
(-0.0895298 0.0543893 0)
(-0.100726 0.0413573 0)
(-0.108583 0.0262453 0)
(-0.112901 0.00988712 0)
(-0.113553 -0.00704624 0)
(-0.110448 -0.0239101 0)
(-0.103533 -0.0399387 0)
(-0.0928646 -0.0541144 0)
(-0.0787246 -0.0650863 0)
(-0.0617829 -0.0711881 0)
(-0.0432356 -0.0706028 0)
(-0.0249151 -0.0616968 0)
(-0.00973594 -0.0435274 0)
(-0.00169441 -0.0166079 0)
(-0.00208529 0.0219195 0)
(-0.0115317 0.0556809 0)
(-0.0288788 0.0774418 0)
(-0.049406 0.087571 0)
(-0.0699393 0.0878632 0)
(-0.0886783 0.0805603 0)
(-0.10453 0.0678153 0)
(-0.116913 0.0514131 0)
(-0.125575 0.0326856 0)
(-0.130414 0.0125741 0)
(-0.13135 -0.00822083 0)
(-0.128264 -0.0290451 0)
(-0.121009 -0.0490835 0)
(-0.109485 -0.0671649 0)
(-0.0938022 -0.0816215 0)
(-0.074506 -0.0902677 0)
(-0.0528125 -0.0905765 0)
(-0.0308292 -0.0801044 0)
(-0.012207 -0.0572012 0)
(-0.00216162 -0.0221348 0)
(-0.00265565 0.0285145 0)
(-0.0143365 0.0714212 0)
(-0.0352937 0.0981143 0)
(-0.0594694 0.109638 0)
(-0.0830044 0.108813 0)
(-0.103937 0.0988443 0)
(-0.121254 0.0826211 0)
(-0.13456 0.0623997 0)
(-0.143812 0.0397478 0)
(-0.149071 0.015667 0)
(-0.150338 -0.00918643 0)
(-0.147477 -0.0342357 0)
(-0.140215 -0.0586984 0)
(-0.128227 -0.0813057 0)
(-0.111333 -0.100071 0)
(-0.0898122 -0.112189 0)
(-0.0647592 -0.11419 0)
(-0.0384906 -0.102455 0)
(-0.0155486 -0.0741968 0)
(-0.00283251 -0.0291463 0)
(-0.00345661 0.0368082 0)
(-0.0180231 0.0906903 0)
(-0.0433025 0.122724 0)
(-0.0714559 0.135142 0)
(-0.0978595 0.132321 0)
(-0.120522 0.118806 0)
(-0.138685 0.09842 0)
(-0.152303 0.0739548 0)
(-0.161665 0.0471864 0)
(-0.167078 0.019098 0)
(-0.168676 -0.00980646 0)
(-0.166322 -0.0391496 0)
(-0.159594 -0.0683067 0)
(-0.147869 -0.0960186 0)
(-0.130539 -0.120028 0)
(-0.107407 -0.136838 0)
(-0.0791944 -0.141769 0)
(-0.0482301 -0.129514 0)
(-0.020041 -0.095457 0)
(-0.00380183 -0.0381949 0)
(-0.00459897 0.0473762 0)
(-0.0228519 0.114305 0)
(-0.0530674 0.151725 0)
(-0.0851044 0.163989 0)
(-0.113613 0.157839 0)
(-0.136856 0.13964 0)
(-0.15462 0.114358 0)
(-0.167425 0.0853399 0)
(-0.176036 0.0544934 0)
(-0.181099 0.0226622 0)
(-0.182932 -0.00994309 0)
(-0.181428 -0.0433014 0)
(-0.176018 -0.0771171 0)
(-0.16573 -0.110315 0)
(-0.149392 -0.140503 0)
(-0.12606 -0.163501 0)
(-0.0956915 -0.173169 0)
(-0.0602044 -0.161859 0)
(-0.0260078 -0.122045 0)
(-0.00521175 -0.0500284 0)
(-0.00626714 0.0610087 0)
(-0.0291532 0.143093 0)
(-0.0645338 0.185165 0)
(-0.0994775 0.195365 0)
(-0.128232 0.183974 0)
(-0.149859 0.159738 0)
(-0.165103 0.128903 0)
(-0.175307 0.0952973 0)
(-0.181843 0.0608035 0)
(-0.185752 0.025956 0)
(-0.187581 -0.00949368 0)
(-0.187292 -0.0460542 0)
(-0.184213 -0.0839639 0)
(-0.17704 -0.122579 0)
(-0.163949 -0.159636 0)
(-0.142988 -0.190454 0)
(-0.11281 -0.207308 0)
(-0.0741663 -0.199489 0)
(-0.0338029 -0.154991 0)
(-0.00728481 -0.0656554 0)
(-0.00878016 0.0788233 0)
(-0.0373412 0.177693 0)
(-0.0771645 0.222183 0)
(-0.112404 0.227162 0)
(-0.137836 0.208014 0)
(-0.154215 0.17636 0)
(-0.163773 0.139662 0)
(-0.168887 0.101962 0)
(-0.171574 0.0648499 0)
(-0.173248 0.0283391 0)
(-0.174667 -0.00843794 0)
(-0.175904 -0.0466691 0)
(-0.176292 -0.0873233 0)
(-0.174326 -0.130486 0)
(-0.167607 -0.174441 0)
(-0.153027 -0.214461 0)
(-0.12736 -0.241465 0)
(-0.0890283 -0.241139 0)
(-0.0437459 -0.194952 0)
(-0.0103735 -0.0864366 0)
(-0.0126628 0.102432 0)
(-0.0478139 0.21808 0)
(-0.0893007 0.26015 0)
(-0.11945 0.255182 0)
(-0.135596 0.225425 0)
(-0.141463 0.185432 0)
(-0.141227 0.143371 0)
(-0.138303 0.102947 0)
(-0.135168 0.0650577 0)
(-0.133413 0.0289763 0)
(-0.133895 -0.00687922 0)
(-0.136816 -0.0444312 0)
(-0.141681 -0.0854883 0)
(-0.147086 -0.131139 0)
(-0.150419 -0.180754 0)
(-0.147618 -0.230382 0)
(-0.133243 -0.270449 0)
(-0.101977 -0.283194 0)
(-0.0558406 -0.241473 0)
(-0.0149814 -0.114164 0)
(-0.0185491 0.134233 0)
(-0.0602569 0.262533 0)
(-0.0964817 0.293212 0)
(-0.111909 0.272178 0)
(-0.110086 0.229537 0)
(-0.0989706 0.181705 0)
(-0.0846309 0.136293 0)
(-0.0710143 0.0957738 0)
(-0.0605004 0.0598862 0)
(-0.0544227 0.027025 0)
(-0.0534852 -0.00505146 0)
(-0.0579838 -0.0388685 0)
(-0.0677928 -0.076984 0)
(-0.0820873 -0.121592 0)
(-0.0987762 -0.173665 0)
(-0.113684 -0.231165 0)
(-0.119623 -0.285806 0)
(-0.10656 -0.318122 0)
(-0.0687035 -0.291604 0)
(-0.0215037 -0.151179 0)
(-0.0261898 0.178228 0)
(-0.0709403 0.305308 0)
(-0.0871912 0.309675 0)
(-0.072922 0.266667 0)
(-0.0428584 0.211702 0)
(-0.0090076 0.159592 0)
(0.0220706 0.115212 0)
(0.047231 0.0787443 0)
(0.0651912 0.0484648 0)
(0.0755209 0.0219935 0)
(0.0780174 -0.00326342 0)
(0.0723997 -0.0300356 0)
(0.058267 -0.0612254 0)
(0.0353483 -0.0998613 0)
(0.00417888 -0.148664 0)
(-0.0325946 -0.208596 0)
(-0.0681051 -0.275317 0)
(-0.0887427 -0.33221 0)
(-0.0763907 -0.337264 0)
(-0.0288359 -0.20082 0)
(-0.0295659 0.237885 0)
(-0.0641206 0.329995 0)
(-0.0331152 0.288531 0)
(0.0293488 0.223312 0)
(0.0945957 0.163561 0)
(0.151485 0.115754 0)
(0.196754 0.0795799 0)
(0.230204 0.0524808 0)
(0.25279 0.0315753 0)
(0.265552 0.0142594 0)
(0.269059 -0.0018048 0)
(0.263176 -0.0189028 0)
(0.246995 -0.0395504 0)
(0.218905 -0.0667935 0)
(0.177026 -0.104389 0)
(0.120393 -0.156367 0)
(0.0512806 -0.22478 0)
(-0.0193804 -0.303426 0)
(-0.0601578 -0.358216 0)
(-0.0288227 -0.263336 0)
(0.00961128 0.281418 0)
(0.0196975 0.293167 0)
(0.132709 0.206451 0)
(0.25088 0.136737 0)
(0.341847 0.0892895 0)
(0.408057 0.0577892 0)
(0.455006 0.0370628 0)
(0.487021 0.0232035 0)
(0.507487 0.0134512 0)
(0.518707 0.00590412 0)
(0.521843 -0.000852663 0)
(0.516954 -0.00807659 0)
(0.502948 -0.017185 0)
(0.477412 -0.0301478 0)
(0.436446 -0.0500459 0)
(0.374654 -0.0817618 0)
(0.284853 -0.132446 0)
(0.162046 -0.210294 0)
(0.038697 -0.307621 0)
(0.0195014 -0.298069 0)
(0.301379 0.145908 0)
(0.398277 0.127072 0)
(0.556555 0.0752564 0)
(0.670533 0.0424867 0)
(0.735977 0.0241179 0)
(0.774874 0.0137892 0)
(0.799072 0.00794186 0)
(0.814089 0.00454756 0)
(0.823032 0.00244667 0)
(0.827654 0.000978714 0)
(0.828765 -0.000265549 0)
(0.82645 -0.00160693 0)
(0.82009 -0.00340916 0)
(0.808143 -0.0062462 0)
(0.787652 -0.0111946 0)
(0.753117 -0.0203749 0)
(0.69245 -0.037928 0)
(0.580822 -0.0714359 0)
(0.416686 -0.126834 0)
(0.310409 -0.148923 0)
)
;

boundaryField
{
    movingWall
    {
        type            fixedValue;
        value           uniform (1 0 0);
    }
    fixedWalls
    {
        type            noSlip;
    }
    frontAndBack
    {
        type            empty;
    }
}


// ************************************************************************* //
