/*--------------------------------*- C++ -*----------------------------------*\
  =========                 |
  \\      /  F ield         | OpenFOAM: The Open Source CFD Toolbox
   \\    /   O peration     | Website:  https://openfoam.org
    \\  /    A nd           | Version:  6
     \\/     M anipulation  |
\*---------------------------------------------------------------------------*/
FoamFile
{
    version     2.0;
    format      ascii;
    class       surfaceScalarField;
    location    "0.015";
    object      phi;
}
// * * * * * * * * * * * * * * * * * * * * * * * * * * * * * * * * * * * * * //

dimensions      [0 3 -1 0 0 0 0];

internalField   nonuniform List<scalar> 
760
(
-5.68922e-09
5.68936e-09
-5.53565e-08
4.96673e-08
-1.34314e-07
7.89571e-08
-2.24229e-07
8.99153e-08
-3.12625e-07
8.8396e-08
-3.91831e-07
7.92062e-08
-4.57259e-07
6.54278e-08
-5.0614e-07
4.88813e-08
-5.36761e-07
3.06201e-08
-5.48082e-07
1.13212e-08
-5.39605e-07
-8.47702e-09
-5.11361e-07
-2.82442e-08
-4.63997e-07
-4.73638e-08
-3.98991e-07
-6.50059e-08
-3.19093e-07
-7.98985e-08
-2.29129e-07
-8.99631e-08
-1.3725e-07
-9.1879e-08
-5.65383e-08
-8.07121e-08
-5.81301e-09
-5.07253e-08
-5.8129e-09
-4.91373e-08
5.48267e-08
-1.77982e-07
1.78512e-07
-3.57262e-07
2.58237e-07
-5.56586e-07
2.8924e-07
-7.52248e-07
2.84057e-07
-9.28105e-07
2.55063e-07
-1.07378e-06
2.11098e-07
-1.18269e-06
1.57794e-07
-1.25073e-06
9.86573e-08
-1.27546e-06
3.60545e-08
-1.25582e-06
-2.81175e-08
-1.19204e-06
-9.20183e-08
-1.08587e-06
-1.53535e-07
-9.41005e-07
-2.09874e-07
-7.63978e-07
-2.56925e-07
-5.65596e-07
-2.88346e-07
-3.62822e-07
-2.94653e-07
-1.80397e-07
-2.63137e-07
-4.96052e-08
-1.81517e-07
-5.54184e-08
-8.16768e-08
1.36504e-07
-2.70189e-07
3.67024e-07
-5.19735e-07
5.07782e-07
-7.91591e-07
5.61097e-07
-1.05625e-06
5.48716e-07
-1.2933e-06
4.92113e-07
-1.48933e-06
4.07126e-07
-1.63571e-06
3.04174e-07
-1.727e-06
1.89949e-07
-1.76001e-06
6.90666e-08
-1.73336e-06
-5.47676e-08
-1.6474e-06
-1.77979e-07
-1.50446e-06
-2.9648e-07
-1.30943e-06
-4.04895e-07
-1.07091e-06
-4.95447e-07
-8.02819e-07
-5.56439e-07
-5.26611e-07
-5.70861e-07
-2.73123e-07
-5.16625e-07
-8.22223e-08
-3.72417e-07
-1.37641e-07
-1.02851e-07
2.39354e-07
-3.36141e-07
6.00315e-07
-6.39559e-07
8.112e-07
-9.65981e-07
8.87518e-07
-1.28118e-06
8.63919e-07
-1.56201e-06
7.72937e-07
-1.79342e-06
6.38542e-07
-1.96586e-06
4.76614e-07
-2.07335e-06
2.97433e-07
-2.11238e-06
1.08092e-07
-2.08138e-06
-8.57607e-08
-1.98065e-06
-2.78709e-07
-1.8126e-06
-4.6453e-07
-1.58252e-06
-6.34981e-07
-1.29986e-06
-7.78109e-07
-9.80262e-07
-8.76033e-07
-6.48221e-07
-9.02902e-07
-3.39705e-07
-8.25141e-07
-1.03386e-07
-6.08736e-07
-2.41027e-07
-1.1944e-07
3.58794e-07
-3.91353e-07
8.72228e-07
-7.42947e-07
1.16279e-06
-1.11833e-06
1.2629e-06
-1.47828e-06
1.22386e-06
-1.7971e-06
1.09176e-06
-2.05868e-06
9.00128e-07
-2.25313e-06
6.71057e-07
-2.37441e-06
4.18719e-07
-2.41904e-06
1.52717e-07
-2.38532e-06
-1.19474e-07
-2.27329e-06
-3.90748e-07
-2.08498e-06
-6.52837e-07
-1.82544e-06
-8.94524e-07
-1.50432e-06
-1.09923e-06
-1.13846e-06
-1.24189e-06
-7.55297e-07
-1.28607e-06
-3.96489e-07
-1.18395e-06
-1.20209e-07
-8.85016e-07
-3.61236e-07
-1.36614e-07
4.95408e-07
-4.49331e-07
1.18495e-06
-8.52489e-07
1.56595e-06
-1.28026e-06
1.69067e-06
-1.68753e-06
1.63113e-06
-2.04585e-06
1.45008e-06
-2.33827e-06
1.19255e-06
-2.555e-06
8.87785e-07
-2.69043e-06
5.54156e-07
-2.74136e-06
2.03644e-07
-2.70603e-06
-1.54803e-07
-2.58395e-06
-5.12825e-07
-2.37635e-06
-8.60443e-07
-2.08736e-06
-1.18352e-06
-1.72624e-06
-1.46034e-06
-1.31077e-06
-1.65736e-06
-8.71708e-07
-1.72512e-06
-4.57682e-07
-1.59798e-06
-1.3806e-07
-1.20464e-06
-4.99296e-07
-1.57934e-07
6.53342e-07
-5.20318e-07
1.54733e-06
-9.85574e-07
2.03121e-06
-1.47555e-06
2.18064e-06
-1.93796e-06
2.09354e-06
-2.3413e-06
1.85342e-06
-2.66814e-06
1.51938e-06
-2.90944e-06
1.12909e-06
-3.06063e-06
7.05343e-07
-3.11917e-06
2.62185e-07
-3.08332e-06
-1.90649e-07
-2.95182e-06
-6.4433e-07
-2.7244e-06
-1.08786e-06
-2.40346e-06
-1.50446e-06
-1.99697e-06
-1.86683e-06
-1.52313e-06
-2.13121e-06
-1.01648e-06
-2.23177e-06
-5.3442e-07
-2.08004e-06
-1.60736e-07
-1.57832e-06
-6.60033e-07
-1.86295e-07
8.39636e-07
-6.12981e-07
1.97402e-06
-1.15677e-06
2.575e-06
-1.72337e-06
2.74724e-06
-2.25167e-06
2.62185e-06
-2.7071e-06
2.30886e-06
-3.07258e-06
1.88486e-06
-3.34092e-06
1.39743e-06
-3.50956e-06
8.73974e-07
-3.57726e-06
3.29889e-07
-3.54248e-06
-2.25426e-07
-3.40282e-06
-7.83993e-07
-3.15567e-06
-1.335e-06
-2.80033e-06
-1.8598e-06
-2.34195e-06
-2.32521e-06
-1.79799e-06
-2.67517e-06
-1.20682e-06
-2.82295e-06
-6.36891e-07
-2.64996e-06
-1.91569e-07
-2.02364e-06
-8.51601e-07
-2.2495e-07
1.06459e-06
-7.36793e-07
2.48586e-06
-1.38125e-06
3.21946e-06
-2.04233e-06
3.40832e-06
-2.64836e-06
3.22788e-06
-3.16233e-06
2.82283e-06
-3.56922e-06
2.29176e-06
-3.86558e-06
1.69378e-06
-4.05236e-06
1.06076e-06
-4.13068e-06
4.08204e-07
-4.09949e-06
-2.56619e-07
-3.95485e-06
-9.28627e-07
-3.69063e-06
-1.59923e-06
-3.30099e-06
-2.24943e-06
-2.78573e-06
-2.84046e-06
-2.15909e-06
-3.30181e-06
-1.46228e-06
-3.51977e-06
-7.77296e-07
-3.33494e-06
-2.34673e-07
-2.56627e-06
-1.08627e-06
-2.78706e-07
1.34329e-06
-9.04682e-07
3.11183e-06
-1.67814e-06
3.99291e-06
-2.45385e-06
4.18402e-06
-3.14822e-06
3.92226e-06
-3.72387e-06
3.39847e-06
-4.17098e-06
2.73887e-06
-4.49281e-06
2.01561e-06
-4.69617e-06
1.26412e-06
-4.78593e-06
4.97964e-07
-4.76214e-06
-2.80408e-07
-4.61896e-06
-1.07181e-06
-4.34517e-06
-1.87302e-06
-3.92705e-06
-2.66755e-06
-3.35494e-06
-3.41258e-06
-2.63527e-06
-4.02148e-06
-1.80896e-06
-4.34607e-06
-9.73301e-07
-4.1706e-06
-2.96534e-07
-3.24303e-06
-1.38281e-06
-3.55507e-07
1.6988e-06
-1.13589e-06
3.89222e-06
-2.07312e-06
4.93015e-06
-2.98335e-06
5.09425e-06
-3.77148e-06
4.71039e-06
-4.40438e-06
4.03138e-06
-4.88281e-06
3.2173e-06
-5.2212e-06
2.354e-06
-5.43536e-06
1.47828e-06
-5.53586e-06
5.98461e-07
-5.52472e-06
-2.91548e-07
-5.39397e-06
-1.20256e-06
-5.12576e-06
-2.14123e-06
-4.69492e-06
-3.09839e-06
-4.07647e-06
-4.03103e-06
-3.26126e-06
-4.83669e-06
-2.28257e-06
-5.32476e-06
-1.25183e-06
-5.20134e-06
-3.88184e-07
-4.10668e-06
-1.77099e-06
-4.68647e-07
2.16745e-06
-1.45858e-06
4.88215e-06
-2.59853e-06
6.0701e-06
-3.65644e-06
6.15216e-06
-4.53068e-06
5.58463e-06
-5.20161e-06
4.7023e-06
-5.68897e-06
3.70466e-06
-6.02441e-06
2.68945e-06
-6.23654e-06
1.6904e-06
-6.34384e-06
7.05766e-07
-6.35151e-06
-2.83877e-07
-6.24972e-06
-1.30435e-06
-6.0128e-06
-2.37815e-06
-5.6006e-06
-3.51059e-06
-4.96538e-06
-4.66625e-06
-4.07041e-06
-5.73166e-06
-2.92699e-06
-6.46818e-06
-1.65198e-06
-6.47634e-06
-5.2816e-07
-5.23051e-06
-2.29915e-06
-6.39598e-07
2.80705e-06
-1.91001e-06
6.15256e-06
-3.28576e-06
7.44585e-06
-4.48262e-06
7.34902e-06
-5.40737e-06
6.50937e-06
-6.07033e-06
5.36526e-06
-6.52218e-06
4.15652e-06
-6.81878e-06
2.98604e-06
-7.00509e-06
1.87671e-06
-7.10936e-06
8.10039e-07
-7.14121e-06
-2.52029e-07
-7.09003e-06
-1.35553e-06
-6.92279e-06
-2.54539e-06
-6.58233e-06
-3.85106e-06
-5.9909e-06
-5.25768e-06
-5.06848e-06
-6.65408e-06
-3.7798e-06
-7.75686e-06
-2.22267e-06
-8.03347e-06
-7.45695e-07
-6.70748e-06
-3.04485e-06
-9.00496e-07
3.70754e-06
-2.52805e-06
7.78012e-06
-4.13832e-06
9.05612e-06
-5.4117e-06
8.6224e-06
-6.29753e-06
7.3952e-06
-6.86206e-06
5.9298e-06
-7.20109e-06
4.49555e-06
-7.4002e-06
3.18516e-06
-7.52184e-06
1.99834e-06
-7.60393e-06
8.92132e-07
-7.66115e-06
-1.94805e-07
-7.68437e-06
-1.33231e-06
-7.63664e-06
-2.59312e-06
-7.44656e-06
-4.04113e-06
-7.00384e-06
-5.7004e-06
-6.16986e-06
-7.48807e-06
-4.82769e-06
-9.09903e-06
-3.00423e-06
-9.85693e-06
-1.08146e-06
-8.63025e-06
-4.12631e-06
-1.29236e-06
4.9999e-06
-3.31934e-06
9.8071e-06
-5.06302e-06
1.07998e-05
-6.23926e-06
9.79864e-06
-6.90501e-06
8.06095e-06
-7.21604e-06
6.24083e-06
-7.32352e-06
4.60302e-06
-7.34105e-06
3.20269e-06
-7.34304e-06
2.00034e-06
-7.37249e-06
9.21574e-07
-7.44778e-06
-1.1951e-07
-7.5644e-06
-1.2157e-06
-7.68956e-06
-2.46796e-06
-7.74941e-06
-3.98128e-06
-7.61145e-06
-5.83835e-06
-7.07539e-06
-8.02413e-06
-5.90626e-06
-1.02682e-05
-3.9723e-06
-1.17909e-05
-1.57779e-06
-1.10248e-05
-5.7041e-06
-1.84513e-06
6.84503e-06
-4.17088e-06
1.21328e-05
-5.72318e-06
1.23521e-05
-6.43539e-06
1.05108e-05
-6.57167e-06
8.19723e-06
-6.40275e-06
6.0719e-06
-6.12596e-06
4.32623e-06
-5.86361e-06
2.94034e-06
-5.68418e-06
1.8209e-06
-5.62359e-06
8.60984e-07
-5.69893e-06
-4.4172e-08
-5.91323e-06
-1.00139e-06
-6.25051e-06
-2.13068e-06
-6.65832e-06
-3.57347e-06
-7.01537e-06
-5.4813e-06
-7.08974e-06
-7.94977e-06
-6.52009e-06
-1.08378e-05
-4.90729e-06
-1.34037e-05
-2.23617e-06
-1.36959e-05
-7.94027e-06
-2.50181e-06
9.34684e-06
-4.63608e-06
1.42671e-05
-5.2662e-06
1.29822e-05
-4.89238e-06
1.0137e-05
-4.07776e-06
7.38261e-06
-3.17848e-06
5.17262e-06
-2.38156e-06
3.52932e-06
-1.76901e-06
2.32779e-06
-1.36969e-06
1.42158e-06
-1.19253e-06
6.83824e-07
-1.2442e-06
7.49212e-09
-1.53615e-06
-7.09433e-07
-2.08265e-06
-1.58419e-06
-2.88542e-06
-2.7707e-06
-3.89456e-06
-4.47215e-06
-4.93324e-06
-6.91109e-06
-5.59042e-06
-1.01806e-05
-5.14775e-06
-1.38464e-05
-2.89592e-06
-1.59477e-05
-1.08362e-05
-2.88508e-06
1.22319e-05
-3.43848e-06
1.48205e-05
-1.86361e-06
1.14074e-05
3.5755e-07
7.91586e-06
2.46515e-06
5.275e-06
4.19516e-06
3.44261e-06
5.50147e-06
2.22301e-06
6.41871e-06
1.41056e-06
6.99697e-06
8.43319e-07
7.27324e-06
4.07557e-07
7.2601e-06
2.06293e-08
6.94062e-06
-3.89949e-07
6.26514e-06
-9.08711e-07
5.15335e-06
-1.65891e-06
3.51613e-06
-2.83493e-06
1.33065e-06
-4.72561e-06
-1.17637e-06
-7.67362e-06
-3.17657e-06
-1.18462e-05
-2.95899e-06
-1.61653e-05
-1.37952e-05
-1.18054e-06
1.34125e-05
2.94063e-06
1.06994e-05
8.05535e-06
6.29263e-06
1.22787e-05
3.6925e-06
1.5372e-05
2.18172e-06
1.75235e-05
1.29109e-06
1.89751e-05
7.71436e-07
1.99226e-05
4.63087e-07
2.04985e-05
2.6738e-07
2.07792e-05
1.26832e-07
2.07938e-05
6.09846e-09
2.05263e-05
-1.22515e-07
1.99091e-05
-2.91512e-07
1.88042e-05
-5.53967e-07
1.69789e-05
-1.00963e-06
1.41033e-05
-1.85003e-06
9.86076e-06
-3.43109e-06
4.38671e-06
-6.37211e-06
-4.44213e-07
-1.13344e-05
-1.42394e-05
1.34125e-05
2.41118e-05
3.04045e-05
3.40969e-05
3.62787e-05
3.75698e-05
3.83412e-05
3.88043e-05
3.90717e-05
3.91985e-05
3.92046e-05
3.90821e-05
3.87906e-05
3.82366e-05
3.7227e-05
3.53769e-05
3.19459e-05
2.55737e-05
1.42394e-05
)
;

boundaryField
{
    movingWall
    {
        type            calculated;
        value           uniform 0;
    }
    fixedWalls
    {
        type            calculated;
        value           uniform 0;
    }
    frontAndBack
    {
        type            empty;
        value           nonuniform 0();
    }
}


// ************************************************************************* //
