/*--------------------------------*- C++ -*----------------------------------*\
  =========                 |
  \\      /  F ield         | OpenFOAM: The Open Source CFD Toolbox
   \\    /   O peration     | Website:  https://openfoam.org
    \\  /    A nd           | Version:  6
     \\/     M anipulation  |
\*---------------------------------------------------------------------------*/
FoamFile
{
    version     2.0;
    format      ascii;
    class       volVectorField;
    location    "0.08";
    object      U;
}
// * * * * * * * * * * * * * * * * * * * * * * * * * * * * * * * * * * * * * //

dimensions      [0 1 -1 0 0 0 0];

internalField   nonuniform List<vector> 
400
(
(0.000257251 -0.00025362 0)
(0.000160042 0.0001059 0)
(-0.0011441 0.000565436 0)
(-0.0034541 0.000894702 0)
(-0.00637538 0.00106137 0)
(-0.00949968 0.00107738 0)
(-0.0124587 0.000967459 0)
(-0.0149483 0.000760427 0)
(-0.016739 0.000485001 0)
(-0.0176771 0.000168645 0)
(-0.0176844 -0.000162063 0)
(-0.0167584 -0.000480591 0)
(-0.0149726 -0.000759566 0)
(-0.0124791 -0.000970181 0)
(-0.00950929 -0.00108229 0)
(-0.00637172 -0.0010661 0)
(-0.00344074 -0.000896919 0)
(-0.00112902 -0.000564102 0)
(0.000169356 -0.000102418 0)
(0.000259765 0.000255546 0)
(-6.70017e-05 -0.000189808 0)
(-0.00156992 0.00161565 0)
(-0.00562706 0.00361329 0)
(-0.0116673 0.00506594 0)
(-0.0188894 0.00579777 0)
(-0.026459 0.00581469 0)
(-0.0335747 0.00520275 0)
(-0.0395459 0.00408657 0)
(-0.0438364 0.00260546 0)
(-0.0460817 0.000902793 0)
(-0.0460955 -0.000877077 0)
(-0.0438728 -0.00258861 0)
(-0.0395918 -0.00408419 0)
(-0.0336139 -0.00521496 0)
(-0.026478 -0.00583576 0)
(-0.0188833 -0.0058181 0)
(-0.0116421 -0.00507604 0)
(-0.00559718 -0.00360877 0)
(-0.00155011 -0.00160148 0)
(-6.11228e-05 0.00019936 0)
(-0.000512652 0.00103766 0)
(-0.00365364 0.00566794 0)
(-0.0105055 0.0102138 0)
(-0.0199363 0.0134735 0)
(-0.0307802 0.0150613 0)
(-0.0419196 0.0149519 0)
(-0.0522763 0.0133172 0)
(-0.0609122 0.0104379 0)
(-0.0670947 0.0066469 0)
(-0.0703238 0.00229873 0)
(-0.0703435 -0.00224314 0)
(-0.0671474 -0.00661064 0)
(-0.0609805 -0.0104333 0)
(-0.0523381 -0.0133447 0)
(-0.0419558 -0.0149994 0)
(-0.030782 -0.015108 0)
(-0.0199094 -0.0134984 0)
(-0.010468 -0.0102064 0)
(-0.00362651 -0.00563725 0)
(-0.000504014 -0.00101397 0)
(-0.000907263 0.0033827 0)
(-0.0056247 0.0121119 0)
(-0.0152234 0.0199199 0)
(-0.027899 0.025326 0)
(-0.0420756 0.0278021 0)
(-0.0563794 0.0273306 0)
(-0.0695206 0.024207 0)
(-0.0803918 0.018912 0)
(-0.0881363 0.0120212 0)
(-0.0921726 0.00415355 0)
(-0.0922035 -0.00405367 0)
(-0.0882202 -0.0119544 0)
(-0.0805054 -0.0188998 0)
(-0.0696329 -0.0242515 0)
(-0.0564615 -0.0274123 0)
(-0.0421109 -0.0278864 0)
(-0.0278892 -0.0253762 0)
(-0.0151889 -0.0199152 0)
(-0.0055937 -0.0120633 0)
(-0.000896177 -0.00334032 0)
(-0.00125561 0.00673222 0)
(-0.0074777 0.0208187 0)
(-0.0197783 0.0325545 0)
(-0.0356347 0.0403411 0)
(-0.0530156 0.0436268 0)
(-0.0702827 0.0424868 0)
(-0.0859615 0.0374052 0)
(-0.098822 0.0291121 0)
(-0.107934 0.0184653 0)
(-0.112674 0.00637962 0)
(-0.112725 -0.00620684 0)
(-0.108076 -0.0183444 0)
(-0.0990227 -0.0290782 0)
(-0.0861746 -0.0374643 0)
(-0.0704627 -0.0426123 0)
(-0.0531306 -0.0437668 0)
(-0.0356767 -0.0404374 0)
(-0.0197669 -0.0325686 0)
(-0.00745027 -0.0207585 0)
(-0.00124312 -0.00666911 0)
(-0.00158776 0.0110276 0)
(-0.00930048 0.0317576 0)
(-0.0243134 0.0481178 0)
(-0.0433473 0.0585035 0)
(-0.0638744 0.06247 0)
(-0.0839795 0.0603023 0)
(-0.102022 0.0527633 0)
(-0.116689 0.0408964 0)
(-0.127019 0.0258812 0)
(-0.132385 0.00894895 0)
(-0.132471 -0.00865208 0)
(-0.127259 -0.025663 0)
(-0.117035 -0.0408125 0)
(-0.102408 -0.0528283 0)
(-0.0843327 -0.0604833 0)
(-0.064138 -0.0626941 0)
(-0.0434949 -0.0586823 0)
(-0.0243585 -0.0481837 0)
(-0.0092901 -0.0317053 0)
(-0.00157624 -0.0109467 0)
(-0.00193386 0.0162736 0)
(-0.0111945 0.0449673 0)
(-0.0289998 0.0666535 0)
(-0.0512461 0.0798166 0)
(-0.0748659 0.084269 0)
(-0.0976645 0.0806516 0)
(-0.117866 0.0701217 0)
(-0.134123 0.0541128 0)
(-0.145496 0.0341644 0)
(-0.151396 0.0118332 0)
(-0.151531 -0.0113324 0)
(-0.145877 -0.0337803 0)
(-0.134685 -0.0539314 0)
(-0.118513 -0.0701736 0)
(-0.0982868 -0.0809002 0)
(-0.0753694 -0.0846172 0)
(-0.0515735 -0.0801346 0)
(-0.0291494 -0.0668281 0)
(-0.0112219 -0.0449622 0)
(-0.00192739 -0.0161864 0)
(-0.00232235 0.0225343 0)
(-0.0132583 0.0605617 0)
(-0.0339964 0.0882422 0)
(-0.0594899 0.104268 0)
(-0.0860822 0.108899 0)
(-0.111317 0.10332 0)
(-0.133341 0.0892267 0)
(-0.150848 0.0685281 0)
(-0.162995 0.0431569 0)
(-0.169289 0.0149861 0)
(-0.169489 -0.0141701 0)
(-0.163564 -0.0425091 0)
(-0.151699 -0.068178 0)
(-0.134343 -0.0892314 0)
(-0.112317 -0.103646 0)
(-0.0869337 -0.109421 0)
(-0.0600894 -0.104804 0)
(-0.0343133 -0.0886125 0)
(-0.0133524 -0.0606708 0)
(-0.00232704 -0.0224653 0)
(-0.00278295 0.0299299 0)
(-0.0155899 0.0787251 0)
(-0.0394378 0.11298 0)
(-0.0681546 0.131779 0)
(-0.0974414 0.136102 0)
(-0.124634 0.127924 0)
(-0.147906 0.109651 0)
(-0.16611 0.0837634 0)
(-0.178603 0.0526035 0)
(-0.185061 0.0183265 0)
(-0.185337 -0.0170552 0)
(-0.179394 -0.0515664 0)
(-0.167309 -0.0831475 0)
(-0.149349 -0.109555 0)
(-0.126115 -0.128325 0)
(-0.0987534 -0.136855 0)
(-0.0691297 -0.132636 0)
(-0.0399976 -0.113667 0)
(-0.0157875 -0.0790496 0)
(-0.00280726 -0.0299212 0)
(-0.00335448 0.0386403 0)
(-0.0183021 0.0997 0)
(-0.0454394 0.140928 0)
(-0.0772081 0.16212 0)
(-0.108628 0.165376 0)
(-0.136944 0.153789 0)
(-0.160529 0.130691 0)
(-0.178563 0.0992119 0)
(-0.190745 0.0620999 0)
(-0.197015 0.0217175 0)
(-0.197369 -0.0198337 0)
(-0.191767 -0.0605278 0)
(-0.180135 -0.0982103 0)
(-0.162458 -0.130415 0)
(-0.138979 -0.154249 0)
(-0.110495 -0.16641 0)
(-0.0786589 -0.163415 0)
(-0.0463235 -0.142086 0)
(-0.0186471 -0.10038 0)
(-0.00340945 -0.0387562 0)
(-0.00409894 0.0489243 0)
(-0.0215511 0.123776 0)
(-0.0521049 0.172038 0)
(-0.0864698 0.194778 0)
(-0.119 0.195819 0)
(-0.147076 0.179814 0)
(-0.169538 0.151243 0)
(-0.186127 0.113954 0)
(-0.197052 0.0710396 0)
(-0.202627 0.0249449 0)
(-0.203044 -0.0222988 0)
(-0.198266 -0.0687867 0)
(-0.188024 -0.112434 0)
(-0.171919 -0.150686 0)
(-0.149664 -0.180282 0)
(-0.121461 -0.197164 0)
(-0.088467 -0.196624 0)
(-0.0533883 -0.173845 0)
(-0.0220917 -0.124993 0)
(-0.0041984 -0.0492555 0)
(-0.0051267 0.0611677 0)
(-0.0255787 0.15128 0)
(-0.0595207 0.206032 0)
(-0.0955188 0.228765 0)
(-0.127424 0.225933 0)
(-0.153159 0.204291 0)
(-0.172421 0.16969 0)
(-0.185799 0.126683 0)
(-0.194195 0.0785732 0)
(-0.198397 0.0276999 0)
(-0.198839 -0.0241885 0)
(-0.195493 -0.0755268 0)
(-0.187865 -0.12452 0)
(-0.175089 -0.168729 0)
(-0.156166 -0.204677 0)
(-0.130408 -0.227566 0)
(-0.0980622 -0.231243 0)
(-0.0612494 -0.208665 0)
(-0.0263613 -0.153243 0)
(-0.00528718 -0.0618339 0)
(-0.00664077 0.0759788 0)
(-0.0307667 0.182539 0)
(-0.0676926 0.242184 0)
(-0.10348 0.262329 0)
(-0.131965 0.253354 0)
(-0.152294 0.224732 0)
(-0.165539 0.183798 0)
(-0.173442 0.135663 0)
(-0.177739 0.0835984 0)
(-0.179741 0.0295732 0)
(-0.180137 -0.0251952 0)
(-0.178923 -0.0797279 0)
(-0.175384 -0.13278 0)
(-0.168152 -0.182307 0)
(-0.155392 -0.224893 0)
(-0.135223 -0.255172 0)
(-0.106437 -0.265436 0)
(-0.0698453 -0.245775 0)
(-0.0318242 -0.185466 0)
(-0.00688094 -0.0771283 0)
(-0.00900638 0.0943526 0)
(-0.0376712 0.217754 0)
(-0.0763143 0.278916 0)
(-0.108546 0.292502 0)
(-0.129321 0.274542 0)
(-0.14005 0.237722 0)
(-0.143764 0.190708 0)
(-0.14357 0.138791 0)
(-0.142047 0.0848188 0)
(-0.140963 0.030078 0)
(-0.141217 -0.0249955 0)
(-0.142832 -0.0802354 0)
(-0.144946 -0.135205 0)
(-0.145777 -0.188596 0)
(-0.142668 -0.237471 0)
(-0.132349 -0.276325 0)
(-0.111571 -0.296086 0)
(-0.0787423 -0.283475 0)
(-0.039 -0.221823 0)
(-0.00934445 -0.0961554 0)
(-0.0128139 0.11789 0)
(-0.0468841 0.256601 0)
(-0.0840758 0.313047 0)
(-0.106942 0.314501 0)
(-0.113813 0.284512 0)
(-0.109706 0.238952 0)
(-0.100032 0.187143 0)
(-0.0891864 0.133835 0)
(-0.0803216 0.0809323 0)
(-0.0754106 0.0287236 0)
(-0.0754127 -0.0233102 0)
(-0.0803851 -0.0759428 0)
(-0.0894688 -0.129725 0)
(-0.100747 -0.184412 0)
(-0.111043 -0.238102 0)
(-0.11582 -0.285926 0)
(-0.109396 -0.318203 0)
(-0.0864132 -0.31836 0)
(-0.0483955 -0.261855 0)
(-0.0132576 -0.120514 0)
(-0.0187191 0.149117 0)
(-0.058166 0.297218 0)
(-0.0867994 0.338474 0)
(-0.0908329 0.321009 0)
(-0.0757355 0.276835 0)
(-0.0512648 0.223679 0)
(-0.0249689 0.170012 0)
(-0.00184683 0.118986 0)
(0.0150539 0.0710037 0)
(0.0240514 0.0251627 0)
(0.0243811 -0.0200014 0)
(0.0159638 -0.066127 0)
(-0.00058736 -0.114737 0)
(-0.0237175 -0.166834 0)
(-0.0504458 -0.222126 0)
(-0.0757208 -0.277493 0)
(-0.0917544 -0.324249 0)
(-0.0883545 -0.343994 0)
(-0.059586 -0.303429 0)
(-0.0192315 -0.152674 0)
(-0.0262687 0.192206 0)
(-0.0674207 0.333818 0)
(-0.0730105 0.343736 0)
(-0.0444337 0.301332 0)
(0.00103702 0.244108 0)
(0.0495364 0.187763 0)
(0.0931376 0.137494 0)
(0.127801 0.0937132 0)
(0.151696 0.0550064 0)
(0.164099 0.0194032 0)
(0.164753 -0.0151922 0)
(0.153582 -0.0509096 0)
(0.130687 -0.0899083 0)
(0.0966239 -0.134286 0)
(0.0530619 -0.18564 0)
(0.00394499 -0.243743 0)
(-0.042724 -0.30343 0)
(-0.072738 -0.348563 0)
(-0.0681301 -0.340318 0)
(-0.0266744 -0.196652 0)
(-0.0286682 0.250106 0)
(-0.0579612 0.349858 0)
(-0.0146284 0.309015 0)
(0.062285 0.242294 0)
(0.14181 0.180543 0)
(0.211582 0.130346 0)
(0.267465 0.0911029 0)
(0.308673 0.0601134 0)
(0.33576 0.0345714 0)
(0.349487 0.0120814 0)
(0.350309 -0.00941923 0)
(0.338184 -0.0318866 0)
(0.312563 -0.0574249 0)
(0.272542 -0.0885262 0)
(0.217373 -0.12817 0)
(0.147606 -0.179321 0)
(0.067197 -0.242856 0)
(-0.0114949 -0.312147 0)
(-0.0569155 -0.355358 0)
(-0.0284566 -0.254841 0)
(0.0136401 0.288402 0)
(0.0297047 0.302273 0)
(0.152938 0.213909 0)
(0.281401 0.142477 0)
(0.381623 0.0942259 0)
(0.455948 0.0622707 0)
(0.509551 0.0408375 0)
(0.546405 0.0257996 0)
(0.569548 0.0144282 0)
(0.580977 0.00494076 0)
(0.581656 -0.0039472 0)
(0.57159 -0.0133705 0)
(0.549816 -0.0246212 0)
(0.514297 -0.0395079 0)
(0.461874 -0.0608336 0)
(0.388349 -0.0929108 0)
(0.288217 -0.141852 0)
(0.158678 -0.214821 0)
(0.0332943 -0.305062 0)
(0.0153876 -0.291422 0)
(0.304632 0.147055 0)
(0.405636 0.127652 0)
(0.568646 0.0748545 0)
(0.68527 0.041989 0)
(0.752864 0.0239896 0)
(0.794097 0.0140451 0)
(0.820526 0.00837934 0)
(0.837347 0.00494386 0)
(0.847386 0.00263705 0)
(0.852177 0.000860079 0)
(0.85239 -0.000753503 0)
(0.848045 -0.00250241 0)
(0.838512 -0.00474746 0)
(0.822296 -0.00807727 0)
(0.796585 -0.0135864 0)
(0.756164 -0.0233479 0)
(0.689392 -0.0412428 0)
(0.573078 -0.0742818 0)
(0.408903 -0.127713 0)
(0.306178 -0.147622 0)
)
;

boundaryField
{
    movingWall
    {
        type            fixedValue;
        value           uniform (1 0 0);
    }
    fixedWalls
    {
        type            noSlip;
    }
    frontAndBack
    {
        type            empty;
    }
}


// ************************************************************************* //
