/*--------------------------------*- C++ -*----------------------------------*\
  =========                 |
  \\      /  F ield         | OpenFOAM: The Open Source CFD Toolbox
   \\    /   O peration     | Website:  https://openfoam.org
    \\  /    A nd           | Version:  6
     \\/     M anipulation  |
\*---------------------------------------------------------------------------*/
FoamFile
{
    version     2.0;
    format      ascii;
    class       volScalarField;
    location    "0.075";
    object      p;
}
// * * * * * * * * * * * * * * * * * * * * * * * * * * * * * * * * * * * * * //

dimensions      [0 2 -2 0 0 0 0];

internalField   nonuniform List<scalar> 
400
(
2.40479e-05
-0.0580377
-0.130345
-0.186205
-0.207163
-0.184917
-0.118845
-0.0138572
0.121366
0.275708
0.436674
0.591285
0.726943
0.832373
0.898726
0.920993
0.899813
0.843622
0.771089
0.713024
0.0575788
-0.0020731
-0.0588353
-0.0973907
-0.108593
-0.0866051
-0.0306815
0.0556277
0.16573
0.290972
0.421479
0.546949
0.657423
0.744113
0.800286
0.822305
0.810921
0.772082
0.715124
0.65551
0.134071
0.0514387
-0.0100056
-0.045613
-0.0547448
-0.03418
0.0160205
0.0924047
0.189179
0.298918
0.413187
0.523183
0.620382
0.69721
0.747716
0.768345
0.759028
0.723093
0.661397
0.578795
0.204744
0.090386
0.0139321
-0.0267015
-0.0378222
-0.0185222
0.0299294
0.103437
0.196149
0.300989
0.41009
0.515277
0.608572
0.68271
0.731633
0.751097
0.739796
0.698747
0.62191
0.507494
0.253413
0.105444
0.0109812
-0.0368252
-0.0502252
-0.030373
0.0201189
0.096171
0.19144
0.298736
0.410291
0.518085
0.614206
0.691215
0.742487
0.762717
0.749204
0.700896
0.605852
0.457623
0.268514
0.0861385
-0.0271457
-0.0819039
-0.0958287
-0.0720517
-0.0146766
0.0699611
0.174703
0.29191
0.413579
0.531511
0.637514
0.723621
0.782285
0.806832
0.792984
0.737676
0.623549
0.440553
0.240025
0.022068
-0.109763
-0.169459
-0.180297
-0.147577
-0.0771561
0.0230854
0.144908
0.279994
0.419895
0.556031
0.679713
0.782189
0.85469
0.88884
0.878473
0.818278
0.685289
0.466143
0.157168
-0.0982162
-0.247318
-0.308002
-0.310035
-0.261448
-0.170288
-0.0463099
0.100962
0.262421
0.429129
0.592093
0.742066
0.869384
0.963807
1.01487
1.01403
0.953087
0.802497
0.5451
0.00655423
-0.28877
-0.45256
-0.507842
-0.492719
-0.418978
-0.297512
-0.140323
0.0416532
0.238579
0.441174
0.640215
0.826044
0.988112
1.11455
1.19236
1.20987
1.1549
0.989347
0.690909
-0.229647
-0.567835
-0.741516
-0.781438
-0.737182
-0.625919
-0.462271
-0.260868
-0.0340299
0.207956
0.455893
0.700787
0.932987
1.14133
1.3123
1.42995
1.47847
1.43995
1.26442
0.921759
-0.576159
-0.959908
-1.1346
-1.14356
-1.05295
-0.887685
-0.667181
-0.408949
-0.126389
0.170399
0.473089
0.773759
1.06356
1.33136
1.5623
1.73713
1.83478
1.8291
1.65287
1.26312
-1.06873
-1.49884
-1.65794
-1.61118
-1.44929
-1.2081
-0.912796
-0.58365
-0.234314
0.12645
0.492479
0.858247
1.21702
1.55889
1.86848
2.12341
2.29624
2.34922
2.18961
1.75206
-1.76201
-2.23278
-2.34489
-2.20269
-1.93341
-1.58731
-1.19577
-0.780721
-0.354364
0.0777906
0.513647
0.951984
1.39013
1.82139
2.23172
2.59667
2.88207
3.03481
2.92441
2.44532
-2.74583
-3.23205
-3.23678
-2.9352
-2.50663
-2.01828
-1.50606
-0.990653
-0.479608
0.0277176
0.535893
1.0505
1.5756
2.11073
2.64652
3.15958
3.61068
3.92881
3.92987
3.43591
-4.17855
-4.60076
-4.38019
-3.81697
-3.15677
-2.48067
-1.82278
-1.19614
-0.598299
-0.0184342
0.557869
1.14589
1.75965
2.40911
3.09509
3.80206
4.49227
5.07995
5.31308
4.88692
-6.34413
-6.48668
-5.81681
-4.83463
-3.84755
-2.93377
-2.11026
-1.37026
-0.693302
-0.0533715
0.577057
1.2257
1.91984
2.68494
3.54033
4.49079
5.51601
6.53241
7.22513
7.08837
-9.7517
-9.08102
-7.56417
-5.94214
-4.5139
-3.31576
-2.31964
-1.47902
-0.744367
-0.0692359
0.589488
1.27362
2.02617
2.89335
3.92415
5.16403
6.63871
8.30626
9.86024
10.5557
-15.5364
-12.6255
-9.51763
-6.9847
-5.01685
-3.51979
-2.3777
-1.47699
-0.727172
-0.0582723
0.587951
1.26603
2.03422
2.9625
4.14136
5.68449
7.70706
10.2989
13.4647
16.4325
-26.6562
-17.272
-10.9829
-7.32162
-4.90822
-3.25889
-2.11012
-1.26424
-0.591309
-0.00619005
0.554896
1.14955
1.84159
2.71623
3.90366
5.60275
8.0796
11.8177
18.1961
27.6823
-45.2701
-21.7485
-10.5222
-6.00944
-3.66575
-2.26886
-1.38834
-0.780178
-0.311282
0.092087
0.479242
0.893032
1.38272
2.02186
2.94323
4.39233
6.80706
11.417
22.7573
46.3937
)
;

boundaryField
{
    movingWall
    {
        type            zeroGradient;
    }
    fixedWalls
    {
        type            zeroGradient;
    }
    frontAndBack
    {
        type            empty;
    }
}


// ************************************************************************* //
