/*--------------------------------*- C++ -*----------------------------------*\
  =========                 |
  \\      /  F ield         | OpenFOAM: The Open Source CFD Toolbox
   \\    /   O peration     | Website:  https://openfoam.org
    \\  /    A nd           | Version:  6
     \\/     M anipulation  |
\*---------------------------------------------------------------------------*/
FoamFile
{
    version     2.0;
    format      ascii;
    class       volScalarField;
    location    "0.175";
    object      p;
}
// * * * * * * * * * * * * * * * * * * * * * * * * * * * * * * * * * * * * * //

dimensions      [0 2 -2 0 0 0 0];

internalField   nonuniform List<scalar> 
400
(
-1.00646e-08
-0.000281879
-0.000518281
-0.000579793
-0.00042916
-6.06472e-05
0.000516973
0.00128755
0.00222897
0.00331043
0.00448839
0.0057036
0.00688079
0.00793279
0.00877047
0.00931922
0.00954049
0.00945259
0.00914618
0.00881704
0.000281292
-9.75993e-06
-0.000180647
-0.000182601
-1.13252e-05
0.000340172
0.000870416
0.00156984
0.00242159
0.00339921
0.00446369
0.00556154
0.00662529
0.0075779
0.00834224
0.00885601
0.00909083
0.00906473
0.00882969
0.0084945
0.000529403
0.000140904
-4.3276e-05
-3.25828e-05
0.000140036
0.000475763
0.000975041
0.0016324
0.00243604
0.00336462
0.00438373
0.00544361
0.00647914
0.00741381
0.00816896
0.00867923
0.00891294
0.00888198
0.00860819
0.00815741
0.000600219
9.65593e-05
-0.000133729
-0.000136207
2.58601e-05
0.000347244
0.000828763
0.00146823
0.00225897
0.0031851
0.0042167
0.00530604
0.00638622
0.00737397
0.00817889
0.00872091
0.00895552
0.00888619
0.00851919
0.00791607
0.000421224
-0.000188284
-0.000469307
-0.000492371
-0.000344407
-3.52029e-05
0.000437275
0.00107489
0.00187693
0.00283397
0.00392125
0.00509287
0.00627804
0.00738192
0.0082944
0.00891068
0.0091644
0.00904749
0.0085603
0.00778481
-5.76158e-05
-0.000766506
-0.00109896
-0.00114519
-0.00101211
-0.000712655
-0.00024249
0.000405514
0.00123816
0.00225438
0.00343662
0.0047424
0.00609688
0.00739008
0.00848388
0.00923596
0.00954415
0.00937987
0.0087391
0.00774424
-0.000877195
-0.0016871
-0.00207314
-0.00214441
-0.00202763
-0.0017385
-0.00126959
-0.000607061
0.000265618
0.00135894
0.0026668
0.00415467
0.00574709
0.00731823
0.00869374
0.00967631
0.0101046
0.00990822
0.00906612
0.0077587
-0.00207843
-0.00299885
-0.00344314
-0.00354256
-0.00344682
-0.00317542
-0.00271754
-0.00205131
-0.00114773
1.97946e-05
0.00146353
0.00316614
0.00506141
0.00701401
0.00880881
0.0101716
0.0108436
0.010668
0.00956598
0.00778794
-0.00370904
-0.00475657
-0.0052663
-0.00539876
-0.00533372
-0.00509717
-0.00467566
-0.00403866
-0.00314242
-0.00193916
-0.000388938
0.00152316
0.00376076
0.00620007
0.00859405
0.0105712
0.0117177
0.0117042
0.0102969
0.00780515
-0.00582809
-0.0070258
-0.00760857
-0.00777855
-0.00775753
-0.00758306
-0.00724141
-0.00669464
-0.00588401
-0.00473737
-0.0031778
-0.00113819
0.00140943
0.00439984
0.00759628
0.0105319
0.0125657
0.0130449
0.0113729
0.00783456
-0.00851131
-0.00988802
-0.0105462
-0.0107506
-0.0107844
-0.0107046
-0.0105017
-0.0101345
-0.00953364
-0.00860527
-0.00723172
-0.00527485
-0.00259618
0.00087953
0.00502979
0.00936316
0.0129628
0.01462
0.0129784
0.00803269
-0.0118615
-0.0134498
-0.0141677
-0.0143804
-0.0144628
-0.0145024
-0.0144994
-0.0144171
-0.0141862
-0.013704
-0.0128213
-0.0113231
-0.00891634
-0.00527567
-0.000224285
0.00592706
0.0120557
0.0161267
0.015363
0.00886621
-0.0160321
-0.01786
-0.0185768
-0.0187183
-0.0188002
-0.0189505
-0.0191834
-0.0194752
-0.0197725
-0.0199867
-0.0199646
-0.0194318
-0.0179222
-0.0147575
-0.00922457
-0.00108551
0.00865291
0.0169969
0.0188874
0.0114944
-0.0212818
-0.0233439
-0.0238937
-0.0237791
-0.0237278
-0.0239104
-0.0243489
-0.0250359
-0.0259487
-0.0270389
-0.0281848
-0.0290909
-0.0291378
-0.0272506
-0.0219893
-0.0121407
0.00200921
0.0168196
0.024318
0.0184036
-0.0280985
-0.0302629
-0.0302459
-0.0294976
-0.0290469
-0.0290746
-0.0295821
-0.0305679
-0.0320417
-0.0340069
-0.0363938
-0.038916
-0.040839
-0.0407259
-0.0363834
-0.0253836
-0.00665256
0.01645
0.0334656
0.0338912
-0.0374805
-0.0392095
-0.0377062
-0.0356308
-0.034341
-0.0339037
-0.0342335
-0.0353025
-0.0371298
-0.0397497
-0.0431214
-0.0469479
-0.0503827
-0.0516863
-0.0480472
-0.0359578
-0.0127738
0.0195671
0.0500956
0.0639073
-0.0516445
-0.0511354
-0.0461634
-0.0416378
-0.0388968
-0.0375991
-0.0374604
-0.0383644
-0.0402842
-0.0432206
-0.0470844
-0.0514798
-0.0553748
-0.0567147
-0.0521894
-0.0375251
-0.00885582
0.0338598
0.0818441
0.117504
-0.0765141
-0.0673861
-0.0550314
-0.0464749
-0.0415397
-0.0390134
-0.038241
-0.0388939
-0.0407944
-0.0438133
-0.0477105
-0.05188
-0.0549938
-0.0545937
-0.0468154
-0.0266046
0.0110725
0.0686385
0.14237
0.214663
-0.130673
-0.0877542
-0.0593
-0.0454059
-0.038516
-0.0352535
-0.0344375
-0.0354021
-0.037703
-0.0410222
-0.0449429
-0.0486386
-0.0504966
-0.047688
-0.0357802
-0.00857408
0.0414673
0.122058
0.240606
0.387229
-0.255697
-0.103316
-0.043674
-0.0289201
-0.0243689
-0.0229945
-0.0240167
-0.0267163
-0.0304563
-0.0348346
-0.0393959
-0.0432621
-0.0447582
-0.0409915
-0.0273808
0.00303178
0.060911
0.164236
0.340752
0.611336
)
;

boundaryField
{
    movingWall
    {
        type            zeroGradient;
    }
    fixedWalls
    {
        type            zeroGradient;
    }
    frontAndBack
    {
        type            empty;
    }
}


// ************************************************************************* //
