/*--------------------------------*- C++ -*----------------------------------*\
  =========                 |
  \\      /  F ield         | OpenFOAM: The Open Source CFD Toolbox
   \\    /   O peration     | Website:  https://openfoam.org
    \\  /    A nd           | Version:  6
     \\/     M anipulation  |
\*---------------------------------------------------------------------------*/
FoamFile
{
    version     2.0;
    format      ascii;
    class       surfaceScalarField;
    location    "0.22";
    object      phi;
}
// * * * * * * * * * * * * * * * * * * * * * * * * * * * * * * * * * * * * * //

dimensions      [0 3 -1 0 0 0 0];

internalField   nonuniform List<scalar> 
760
(
1.04256e-09
-1.04198e-09
-3.5915e-08
3.69575e-08
-1.04025e-07
6.81102e-08
-1.89239e-07
8.52139e-08
-2.80431e-07
9.11919e-08
-3.69623e-07
8.9192e-08
-4.50932e-07
8.13095e-08
-5.19485e-07
6.85528e-08
-5.70634e-07
5.11493e-08
-5.99698e-07
2.90634e-08
-6.02262e-07
2.56387e-09
-5.75013e-07
-2.72484e-08
-5.16982e-07
-5.8031e-08
-4.30943e-07
-8.60394e-08
-3.24546e-07
-1.06398e-07
-2.10592e-07
-1.13954e-07
-1.05896e-07
-1.04696e-07
-2.85938e-08
-7.73026e-08
6.36419e-09
-3.4958e-08
6.36418e-09
-3.76736e-08
3.66316e-08
-1.50911e-07
1.50194e-07
-3.21966e-07
2.39166e-07
-5.26722e-07
2.8997e-07
-7.43215e-07
3.07684e-07
-9.53711e-07
2.99688e-07
-1.14406e-06
2.71658e-07
-1.3023e-06
2.26796e-07
-1.41755e-06
1.66398e-07
-1.47964e-06
9.11552e-08
-1.47978e-06
2.70503e-09
-1.41214e-06
-9.48973e-08
-1.27611e-06
-1.94056e-07
-1.07889e-06
-2.83263e-07
-8.37303e-07
-3.47982e-07
-5.78034e-07
-3.73223e-07
-3.34969e-07
-3.47761e-07
-1.43212e-07
-2.69059e-07
-2.96521e-08
-1.48518e-07
-2.32879e-08
-7.48823e-08
1.11514e-07
-2.58482e-07
3.33794e-07
-5.15812e-07
4.96495e-07
-8.14013e-07
5.88171e-07
-1.12452e-06
6.1819e-07
-1.42395e-06
5.99116e-07
-1.6932e-06
5.40913e-07
-1.91594e-06
4.49535e-07
-2.07734e-06
3.27792e-07
-2.16372e-06
1.7754e-07
-2.16339e-06
2.37492e-09
-2.06857e-06
-1.89721e-07
-1.87831e-06
-3.84313e-07
-1.60181e-06
-5.59758e-07
-1.26107e-06
-6.88727e-07
-8.91387e-07
-7.42906e-07
-5.38199e-07
-7.00948e-07
-2.49289e-07
-5.5797e-07
-6.33846e-08
-3.34422e-07
-8.66724e-08
-1.04445e-07
2.15959e-07
-3.48647e-07
5.77996e-07
-6.80173e-07
8.28021e-07
-1.05673e-06
9.64728e-07
-1.44431e-06
1.00577e-06
-1.81598e-06
9.70785e-07
-2.14992e-06
8.74854e-07
-2.42735e-06
7.26965e-07
-2.63094e-06
5.3138e-07
-2.74425e-06
2.9085e-07
-2.7525e-06
1.06255e-08
-2.64475e-06
-2.97477e-07
-2.41741e-06
-6.11649e-07
-2.07872e-06
-8.98447e-07
-1.6529e-06
-1.11455e-06
-1.18214e-06
-1.21367e-06
-7.23765e-07
-1.15932e-06
-3.41025e-07
-9.40709e-07
-8.86295e-08
-5.86818e-07
-1.75302e-07
-1.28599e-07
3.44558e-07
-4.25282e-07
8.74679e-07
-8.22355e-07
1.22509e-06
-1.26837e-06
1.41075e-06
-1.72456e-06
1.46196e-06
-2.16166e-06
1.40789e-06
-2.55663e-06
1.26983e-06
-2.8896e-06
1.05993e-06
-3.14158e-06
7.83361e-07
-3.29343e-06
4.42699e-07
-3.32625e-06
4.34512e-08
-3.22366e-06
-4.0007e-07
-2.97601e-06
-8.59298e-07
-2.58659e-06
-1.28787e-06
-2.07858e-06
-1.62255e-06
-1.50024e-06
-1.79202e-06
-9.23916e-07
-1.73564e-06
-4.3501e-07
-1.42962e-06
-1.11173e-07
-9.10654e-07
-2.86475e-07
-1.4989e-07
4.94447e-07
-4.9437e-07
1.21916e-06
-9.5229e-07
1.68301e-06
-1.46374e-06
1.92219e-06
-1.98587e-06
1.9841e-06
-2.4882e-06
1.91022e-06
-2.94774e-06
1.72936e-06
-3.34469e-06
1.45688e-06
-3.65918e-06
1.09785e-06
-3.86925e-06
6.52773e-07
-3.95056e-06
1.2476e-07
-3.87829e-06
-4.72341e-07
-3.63208e-06
-1.10551e-06
-3.20451e-06
-1.71544e-06
-2.6125e-06
-2.21457e-06
-1.90832e-06
-2.4962e-06
-1.18333e-06
-2.46064e-06
-5.55708e-07
-2.05723e-06
-1.38776e-07
-1.32759e-06
-4.25251e-07
-1.70419e-07
6.64866e-07
-5.61421e-07
1.61016e-06
-1.07905e-06
2.20064e-06
-1.65541e-06
2.49856e-06
-2.24443e-06
2.57312e-06
-2.81555e-06
2.48133e-06
-3.34725e-06
2.26106e-06
-3.8213e-06
1.93092e-06
-4.218e-06
1.49456e-06
-4.51293e-06
9.47696e-07
-4.67517e-06
2.87007e-07
-4.66833e-06
-4.79185e-07
-4.45555e-06
-1.31829e-06
-4.01059e-06
-2.1604e-06
-3.33529e-06
-2.88986e-06
-2.48022e-06
-3.35126e-06
-1.55827e-06
-3.38259e-06
-7.34814e-07
-2.88069e-06
-1.80983e-07
-1.88142e-06
-6.06234e-07
-1.91795e-07
8.56662e-07
-6.30784e-07
2.04915e-06
-1.20949e-06
2.77935e-06
-1.85209e-06
3.14117e-06
-2.51003e-06
3.23106e-06
-3.1541e-06
3.1254e-06
-3.76605e-06
2.87302e-06
-4.33112e-06
2.49599e-06
-4.83167e-06
1.99511e-06
-5.24201e-06
1.35804e-06
-5.5246e-06
5.6959e-07
-5.62888e-06
-3.74904e-07
-5.49548e-06
-1.45169e-06
-5.06921e-06
-2.58668e-06
-4.32367e-06
-3.6354e-06
-3.29552e-06
-4.37942e-06
-2.11598e-06
-4.56213e-06
-1.01308e-06
-3.98358e-06
-2.50404e-07
-2.6441e-06
-8.56639e-07
-2.15269e-07
1.07193e-06
-7.05731e-07
2.53961e-06
-1.34815e-06
3.42176e-06
-2.05807e-06
3.85109e-06
-2.78519e-06
3.95817e-06
-3.50319e-06
3.8434e-06
-4.19921e-06
3.56904e-06
-4.86441e-06
3.16119e-06
-5.48586e-06
2.61657e-06
-6.03918e-06
1.91135e-06
-6.48178e-06
1.01219e-06
-6.74852e-06
-1.08163e-07
-6.75321e-06
-1.44699e-06
-6.40187e-06
-2.93802e-06
-5.62358e-06
-4.4137e-06
-4.42055e-06
-5.58244e-06
-2.92683e-06
-6.05586e-06
-1.44078e-06
-5.46963e-06
-3.64375e-07
-3.7205e-06
-1.22101e-06
-2.42152e-07
1.31408e-06
-7.89269e-07
3.08673e-06
-1.49806e-06
4.13056e-06
-2.27388e-06
4.62691e-06
-3.06519e-06
4.74948e-06
-3.85021e-06
4.62842e-06
-4.62355e-06
4.34238e-06
-5.3849e-06
3.92253e-06
-6.12922e-06
3.36089e-06
-6.8372e-06
2.61933e-06
-7.46534e-06
1.64032e-06
-7.9373e-06
3.63799e-07
-8.14102e-06
-1.24327e-06
-7.93902e-06
-3.14002e-06
-7.20129e-06
-5.15143e-06
-5.86822e-06
-6.91552e-06
-4.04168e-06
-7.88239e-06
-2.07322e-06
-7.43809e-06
-5.47098e-07
-5.24662e-06
-1.76811e-06
-2.74592e-07
1.58867e-06
-8.85684e-07
3.69782e-06
-1.66257e-06
4.90744e-06
-2.49778e-06
5.46212e-06
-3.33904e-06
5.59074e-06
-4.17061e-06
5.45999e-06
-4.99624e-06
5.16801e-06
-5.82613e-06
4.75242e-06
-6.66603e-06
4.20079e-06
-7.50624e-06
3.45955e-06
-8.30909e-06
2.44318e-06
-8.99616e-06
1.05087e-06
-9.43959e-06
-7.99839e-07
-9.46551e-06
-3.1141e-06
-8.88067e-06
-5.73626e-06
-7.53677e-06
-8.25942e-06
-5.44782e-06
-9.97134e-06
-2.95526e-06
-9.93065e-06
-8.31967e-07
-7.36992e-06
-2.60008e-06
-3.16924e-07
1.9056e-06
-1.00302e-06
4.38392e-06
-1.84787e-06
5.75229e-06
-2.72784e-06
6.34209e-06
-3.59095e-06
6.45385e-06
-4.42902e-06
6.29807e-06
-5.25582e-06
5.99481e-06
-6.09266e-06
5.58925e-06
-6.95769e-06
5.06583e-06
-7.85512e-06
4.35698e-06
-8.762e-06
3.35006e-06
-9.61291e-06
1.90178e-06
-1.02856e-05
-1.27102e-07
-1.05939e-05
-2.8058e-06
-1.02972e-05
-6.03302e-06
-9.14654e-06
-9.41007e-06
-7.00456e-06
-1.21133e-05
-4.08418e-06
-1.2851e-05
-1.26007e-06
-1.0194e-05
-3.86015e-06
-3.78116e-07
2.28371e-06
-1.1569e-06
5.1627e-06
-2.06626e-06
6.66166e-06
-2.96379e-06
7.23962e-06
-3.80129e-06
7.29134e-06
-4.58072e-06
7.0775e-06
-5.32616e-06
6.74025e-06
-6.06911e-06
6.33221e-06
-6.83988e-06
5.8366e-06
-7.65941e-06
5.17651e-06
-8.52849e-06
4.21914e-06
-9.41316e-06
2.78644e-06
-1.02267e-05
6.86449e-07
-1.08102e-05
-2.2223e-06
-1.09166e-05
-5.92664e-06
-1.02166e-05
-1.011e-05
-8.38059e-06
-1.39494e-05
-5.34415e-06
-1.58875e-05
-1.86233e-06
-1.36759e-05
-5.72247e-06
-4.764e-07
2.76011e-06
-1.37607e-06
6.06237e-06
-2.3385e-06
7.62408e-06
-3.20541e-06
8.10653e-06
-3.9426e-06
8.02853e-06
-4.56814e-06
7.70304e-06
-5.11766e-06
7.28977e-06
-5.63155e-06
6.8461e-06
-6.15046e-06
6.3555e-06
-6.71233e-06
5.73838e-06
-7.34731e-06
4.85412e-06
-8.06783e-06
3.50695e-06
-8.85113e-06
1.46976e-06
-9.61058e-06
-1.46286e-06
-1.01531e-05
-5.38411e-06
-1.01317e-05
-1.01314e-05
-9.04401e-06
-1.50371e-05
-6.43369e-06
-1.84978e-05
-2.6095e-06
-1.75e-05
-8.33197e-06
-6.48012e-07
3.40813e-06
-1.70931e-06
7.12367e-06
-2.68996e-06
8.60473e-06
-3.43764e-06
8.85422e-06
-3.95724e-06
8.54813e-06
-4.29586e-06
8.04165e-06
-4.50541e-06
7.49932e-06
-4.63543e-06
6.97612e-06
-4.73478e-06
6.45486e-06
-4.85542e-06
5.85902e-06
-5.05506e-06
5.05375e-06
-5.39542e-06
3.84732e-06
-5.93074e-06
2.00508e-06
-6.67844e-06
-7.15162e-07
-7.56115e-06
-4.5014e-06
-8.31105e-06
-9.38151e-06
-8.35614e-06
-1.4992e-05
-6.84664e-06
-2.00073e-05
-3.33769e-06
-2.1009e-05
-1.16697e-05
-9.61714e-07
4.36984e-06
-2.22551e-06
8.38747e-06
-3.11865e-06
9.49787e-06
-3.5708e-06
9.30636e-06
-3.67875e-06
8.65608e-06
-3.54154e-06
7.90444e-06
-3.23642e-06
7.19421e-06
-2.82433e-06
6.56403e-06
-2.35987e-06
5.9904e-06
-1.9024e-06
5.40154e-06
-1.52671e-06
4.67807e-06
-1.33063e-06
3.65124e-06
-1.43389e-06
2.10833e-06
-1.95888e-06
-1.90171e-07
-2.97807e-06
-3.4822e-06
-4.39989e-06
-7.95969e-06
-5.75503e-06
-1.36368e-05
-5.96109e-06
-1.98012e-05
-3.69814e-06
-2.32719e-05
-1.53678e-05
-1.533e-06
5.90284e-06
-2.95357e-06
9.80804e-06
-3.44334e-06
9.98764e-06
-3.22928e-06
9.0923e-06
-2.59175e-06
8.01856e-06
-1.7075e-06
7.02019e-06
-6.82593e-07
6.1693e-06
4.14818e-07
5.46662e-06
1.53261e-06
4.87261e-06
2.61622e-06
4.31793e-06
3.59108e-06
3.70321e-06
4.34715e-06
2.89517e-06
4.72954e-06
1.72594e-06
4.54213e-06
-2.76542e-09
3.57693e-06
-2.517e-06
1.70252e-06
-6.08529e-06
-8.93723e-07
-1.10406e-05
-3.20209e-06
-1.74928e-05
-3.1849e-06
-2.32891e-05
-1.85527e-05
-2.47976e-06
8.3826e-06
-3.46548e-06
1.07938e-05
-2.66351e-06
9.18567e-06
-1.06128e-06
7.49007e-06
8.1121e-07
6.14607e-06
2.74224e-06
5.08915e-06
4.64288e-06
4.26866e-06
6.47195e-06
3.63755e-06
8.2059e-06
3.13865e-06
9.81653e-06
2.70731e-06
1.12506e-05
2.26916e-06
1.2411e-05
1.73471e-06
1.31412e-05
9.95803e-07
1.32146e-05
-7.62378e-08
1.23379e-05
-1.64026e-06
1.0184e-05
-3.93135e-06
6.55119e-06
-7.40782e-06
1.97647e-06
-1.29181e-05
-1.22475e-06
-2.00879e-05
-1.97775e-05
-2.91967e-06
1.13023e-05
-6.03416e-07
8.47751e-06
3.28262e-06
5.29963e-06
6.9683e-06
3.80438e-06
1.02246e-05
2.88975e-06
1.30875e-05
2.2263e-06
1.56059e-05
1.75025e-06
1.78302e-05
1.41327e-06
1.98028e-05
1.16599e-06
2.1544e-05
9.66183e-07
2.30377e-05
7.75424e-07
2.42186e-05
5.53809e-07
2.49569e-05
2.57455e-07
2.50432e-05
-1.62532e-07
2.4169e-05
-7.66024e-07
2.18986e-05
-1.66097e-06
1.76541e-05
-3.16333e-06
1.10092e-05
-6.27322e-06
3.24796e-06
-1.23267e-05
-1.65295e-05
1.13023e-05
1.97798e-05
2.50794e-05
2.88838e-05
3.17735e-05
3.39998e-05
3.57501e-05
3.71634e-05
3.83294e-05
3.92955e-05
4.0071e-05
4.06248e-05
4.08822e-05
4.07197e-05
3.99537e-05
3.82927e-05
3.51294e-05
2.88562e-05
1.65295e-05
)
;

boundaryField
{
    movingWall
    {
        type            calculated;
        value           uniform 0;
    }
    fixedWalls
    {
        type            calculated;
        value           uniform 0;
    }
    frontAndBack
    {
        type            empty;
        value           nonuniform 0();
    }
}


// ************************************************************************* //
