/*--------------------------------*- C++ -*----------------------------------*\
  =========                 |
  \\      /  F ield         | OpenFOAM: The Open Source CFD Toolbox
   \\    /   O peration     | Website:  https://openfoam.org
    \\  /    A nd           | Version:  6
     \\/     M anipulation  |
\*---------------------------------------------------------------------------*/
FoamFile
{
    version     2.0;
    format      ascii;
    class       surfaceScalarField;
    location    "0.06";
    object      phi;
}
// * * * * * * * * * * * * * * * * * * * * * * * * * * * * * * * * * * * * * //

dimensions      [0 3 -1 0 0 0 0];

internalField   nonuniform List<scalar> 
760
(
-1.59305e-09
1.59289e-09
-4.4815e-08
4.3222e-08
-1.1943e-07
7.46153e-08
-2.08722e-07
8.92914e-08
-2.99929e-07
9.12075e-08
-3.84403e-07
8.4474e-08
-4.56501e-07
7.20976e-08
-5.12491e-07
5.599e-08
-5.49746e-07
3.72547e-08
-5.66313e-07
1.65677e-08
-5.60806e-07
-5.50703e-09
-5.32518e-07
-2.82879e-08
-4.81732e-07
-5.07868e-08
-4.10218e-07
-7.15135e-08
-3.21956e-07
-8.82624e-08
-2.23999e-07
-9.79563e-08
-1.27278e-07
-9.67217e-08
-4.69683e-08
-8.03093e-08
-1.29206e-09
-4.56763e-08
-1.29211e-09
-4.28623e-08
4.44552e-08
-1.64786e-07
1.65145e-07
-3.42774e-07
2.52604e-07
-5.48408e-07
2.94925e-07
-7.57031e-07
2.99831e-07
-9.5019e-07
2.77632e-07
-1.11495e-06
2.36853e-07
-1.24236e-06
1.83408e-07
-1.32618e-06
1.21069e-07
-1.36198e-06
5.23708e-08
-1.34696e-06
-2.05325e-08
-1.28007e-06
-9.51768e-08
-1.16266e-06
-1.68197e-07
-9.99422e-07
-2.34748e-07
-7.99724e-07
-2.87961e-07
-5.79007e-07
-3.18673e-07
-3.59755e-07
-3.15973e-07
-1.70887e-07
-2.69177e-07
-4.34928e-08
-1.73071e-07
-4.47848e-08
-7.79524e-08
1.22408e-07
-2.65604e-07
3.52797e-07
-5.2288e-07
5.09881e-07
-8.12332e-07
5.84378e-07
-1.10256e-06
5.90053e-07
-1.36975e-06
5.44832e-07
-1.59691e-06
4.64005e-07
-1.77206e-06
3.5856e-07
-1.88678e-06
2.35793e-07
-1.9352e-06
1.00792e-07
-1.91365e-06
-4.20894e-08
-1.82086e-06
-1.87963e-07
-1.65877e-06
-3.30288e-07
-1.43372e-06
-4.59797e-07
-1.15812e-06
-5.63559e-07
-8.52154e-07
-6.24642e-07
-5.44824e-07
-6.23304e-07
-2.73203e-07
-5.40798e-07
-7.84534e-08
-3.6782e-07
-1.23238e-07
-1.03045e-07
2.25452e-07
-3.43515e-07
5.93268e-07
-6.65267e-07
8.31632e-07
-1.02141e-06
9.40525e-07
-1.37491e-06
9.43554e-07
-1.69841e-06
8.68328e-07
-1.97254e-06
7.3813e-07
-2.18372e-06
5.69745e-07
-2.32236e-06
3.74435e-07
-2.38166e-06
1.60092e-07
-2.3572e-06
-6.65547e-08
-2.24716e-06
-2.98001e-07
-2.05326e-06
-5.24189e-07
-1.78226e-06
-7.30795e-07
-1.44806e-06
-8.9776e-07
-1.07388e-06
-9.98815e-07
-6.93878e-07
-1.00331e-06
-3.52821e-07
-8.81855e-07
-1.03044e-07
-6.17597e-07
-2.26282e-07
-1.22964e-07
3.48416e-07
-4.09125e-07
8.79429e-07
-7.8839e-07
1.2109e-06
-1.20422e-06
1.35635e-06
-1.6139e-06
1.35323e-06
-1.987e-06
1.24143e-06
-2.30258e-06
1.05371e-06
-2.54621e-06
8.13375e-07
-2.70766e-06
5.35881e-07
-2.77943e-06
2.31862e-07
-2.75619e-06
-8.97936e-08
-2.63502e-06
-4.19174e-07
-2.41649e-06
-7.4272e-07
-2.10665e-06
-1.04063e-06
-1.71981e-06
-1.2846e-06
-1.28164e-06
-1.43699e-06
-8.31699e-07
-1.45325e-06
-4.23859e-07
-1.28969e-06
-1.23272e-07
-9.18185e-07
-3.49554e-07
-1.42215e-07
4.90631e-07
-4.74006e-07
1.21122e-06
-9.11681e-07
1.64857e-06
-1.38839e-06
1.83306e-06
-1.85528e-06
1.82011e-06
-2.27886e-06
1.66502e-06
-2.63699e-06
1.41184e-06
-2.91486e-06
1.09125e-06
-3.102e-06
7.23019e-07
-3.19032e-06
3.20177e-07
-3.17329e-06
-1.06822e-07
-3.04616e-06
-5.46305e-07
-2.80725e-06
-9.81624e-07
-2.46059e-06
-1.38729e-06
-2.01973e-06
-1.72546e-06
-1.51241e-06
-1.94431e-06
-9.84559e-07
-1.9811e-06
-5.01618e-07
-1.77264e-06
-1.44729e-07
-1.27507e-06
-4.94283e-07
-1.64362e-07
6.54992e-07
-5.48144e-07
1.595e-06
-1.05203e-06
2.15246e-06
-1.59726e-06
2.3783e-06
-2.12803e-06
2.35088e-06
-2.60775e-06
2.14473e-06
-3.01347e-06
1.81756e-06
-3.3306e-06
1.40838e-06
-3.54888e-06
9.41299e-07
-3.65982e-06
4.31117e-07
-3.65544e-06
-1.11199e-07
-3.52832e-06
-6.73424e-07
-3.27312e-06
-1.23683e-06
-2.88994e-06
-1.77047e-06
-2.38981e-06
-2.22559e-06
-1.80156e-06
-2.53256e-06
-1.17844e-06
-2.60422e-06
-6.01081e-07
-2.35e-06
-1.72364e-07
-1.70379e-06
-6.66646e-07
-1.9237e-07
8.47362e-07
-6.4011e-07
2.04274e-06
-1.22374e-06
2.73609e-06
-1.84986e-06
3.00442e-06
-2.45463e-06
2.95565e-06
-2.9985e-06
2.6886e-06
-3.4585e-06
2.27756e-06
-3.8212e-06
1.77108e-06
-4.07741e-06
1.1975e-06
-4.21872e-06
5.72427e-07
-4.23561e-06
-9.43031e-08
-4.11713e-06
-7.91912e-07
-3.85242e-06
-1.50154e-06
-3.43499e-06
-2.18789e-06
-2.87015e-06
-2.79043e-06
-2.18542e-06
-3.21729e-06
-1.44153e-06
-3.34811e-06
-7.38875e-07
-3.05265e-06
-2.1152e-07
-2.23114e-06
-8.78167e-07
-2.29184e-07
1.07655e-06
-7.58219e-07
2.57178e-06
-1.44003e-06
3.4179e-06
-2.16249e-06
3.72688e-06
-2.85264e-06
3.6458e-06
-3.46862e-06
3.30458e-06
-3.98886e-06
2.79781e-06
-4.40271e-06
2.18493e-06
-4.70352e-06
1.49831e-06
-4.88399e-06
7.529e-07
-4.93342e-06
-4.48753e-08
-4.83659e-06
-8.88742e-07
-4.57503e-06
-1.7631e-06
-4.13182e-06
-2.6311e-06
-3.5014e-06
-3.42085e-06
-2.70485e-06
-4.01384e-06
-1.80827e-06
-4.24469e-06
-9.36668e-07
-3.92425e-06
-2.69505e-07
-2.89831e-06
-1.14767e-06
-2.78528e-07
1.35507e-06
-9.12119e-07
3.20537e-06
-1.71478e-06
4.22056e-06
-2.55025e-06
4.56235e-06
-3.33568e-06
4.43123e-06
-4.02852e-06
3.99742e-06
-4.61108e-06
3.38037e-06
-5.07806e-06
2.65191e-06
-5.42763e-06
1.84788e-06
-5.65547e-06
9.80744e-07
-5.7508e-06
5.0452e-08
-5.69405e-06
-9.45491e-07
-5.45709e-06
-2.00005e-06
-5.00785e-06
-3.08034e-06
-4.3222e-06
-4.10651e-06
-3.40547e-06
-4.93058e-06
-2.32222e-06
-5.32793e-06
-1.22484e-06
-5.02163e-06
-3.57628e-07
-3.76552e-06
-1.5053e-06
-3.45898e-07
1.70097e-06
-1.11439e-06
3.97386e-06
-2.06361e-06
5.16978e-06
-3.0267e-06
5.52544e-06
-3.91137e-06
5.31591e-06
-4.67769e-06
4.76374e-06
-5.31582e-06
4.0185e-06
-5.82953e-06
3.16562e-06
-6.22516e-06
2.2435e-06
-6.50422e-06
1.2598e-06
-6.65813e-06
2.04361e-07
-6.66416e-06
-9.39454e-07
-6.48357e-06
-2.18065e-06
-6.06445e-06
-3.49946e-06
-5.35429e-06
-4.81666e-06
-4.32782e-06
-5.95705e-06
-3.03271e-06
-6.62304e-06
-1.64418e-06
-6.41015e-06
-4.93448e-07
-4.91626e-06
-1.99875e-06
-4.39876e-07
2.14085e-06
-1.38175e-06
4.91574e-06
-2.50288e-06
6.29091e-06
-3.59947e-06
6.62202e-06
-4.57323e-06
6.28968e-06
-5.39311e-06
5.58361e-06
-6.0631e-06
4.68849e-06
-6.60108e-06
3.7036e-06
-7.02578e-06
2.6682e-06
-7.34842e-06
1.58245e-06
-7.56632e-06
4.22263e-07
-7.65687e-06
-8.48906e-07
-7.57238e-06
-2.26514e-06
-7.23887e-06
-3.83297e-06
-6.56581e-06
-5.48972e-06
-5.47753e-06
-7.04533e-06
-3.97711e-06
-8.12347e-06
-2.24112e-06
-8.14614e-06
-7.02438e-07
-6.45494e-06
-2.70119e-06
-5.73971e-07
2.71482e-06
-1.73493e-06
6.07669e-06
-3.04377e-06
7.59975e-06
-4.25716e-06
7.83542e-06
-5.28096e-06
7.31347e-06
-6.10397e-06
6.40663e-06
-6.75267e-06
5.33719e-06
-7.26515e-06
4.21609e-06
-7.67711e-06
3.08016e-06
-8.01364e-06
1.91898e-06
-8.28269e-06
6.91308e-07
-8.46755e-06
-6.64045e-07
-8.51785e-06
-2.21485e-06
-8.34152e-06
-4.0093e-06
-7.80605e-06
-6.02518e-06
-6.76557e-06
-8.08581e-06
-5.13774e-06
-9.7513e-06
-3.04901e-06
-1.02349e-05
-1.01737e-06
-8.48658e-06
-3.71856e-06
-7.69485e-07
3.4843e-06
-2.19537e-06
7.50258e-06
-3.67614e-06
9.08052e-06
-4.93999e-06
9.09927e-06
-5.92042e-06
8.2939e-06
-6.64471e-06
7.13091e-06
-7.17318e-06
5.86566e-06
-7.5703e-06
4.61321e-06
-7.89195e-06
3.40181e-06
-8.17971e-06
2.20674e-06
-8.45627e-06
9.67871e-07
-8.71833e-06
-4.01989e-07
-8.92455e-06
-2.00862e-06
-8.97923e-06
-3.95462e-06
-8.71836e-06
-6.28604e-06
-7.91812e-06
-8.88606e-06
-6.36538e-06
-1.1304e-05
-4.04526e-06
-1.2555e-05
-1.47161e-06
-1.10602e-05
-5.19016e-06
-1.05963e-06
4.54393e-06
-2.77326e-06
9.21621e-06
-4.33055e-06
1.06378e-05
-5.47989e-06
1.02486e-05
-6.231e-06
9.04501e-06
-6.67777e-06
7.57768e-06
-6.92674e-06
6.11463e-06
-7.07163e-06
4.7581e-06
-7.18689e-06
3.51707e-06
-7.32817e-06
2.34802e-06
-7.53303e-06
1.17273e-06
-7.81748e-06
-1.17533e-07
-8.16449e-06
-1.66162e-06
-8.5011e-06
-3.61801e-06
-8.66543e-06
-6.12172e-06
-8.37896e-06
-9.17253e-06
-7.27328e-06
-1.24097e-05
-5.07171e-06
-1.47566e-05
-2.07601e-06
-1.40559e-05
-7.26617e-06
-1.49009e-06
6.03402e-06
-3.42699e-06
1.11531e-05
-4.78957e-06
1.20004e-05
-5.48467e-06
1.09437e-05
-5.68487e-06
9.24521e-06
-5.58336e-06
7.47617e-06
-5.33733e-06
5.8686e-06
-5.06145e-06
4.48222e-06
-4.83621e-06
3.29182e-06
-4.71936e-06
2.23117e-06
-4.75509e-06
1.20846e-06
-4.97791e-06
1.05287e-07
-5.40715e-06
-1.23238e-06
-6.02498e-06
-3.00018e-06
-6.729e-06
-5.4177e-06
-7.25836e-06
-8.64316e-06
-7.12897e-06
-1.25391e-05
-5.70733e-06
-1.61782e-05
-2.75387e-06
-1.70094e-05
-1.002e-05
-2.09002e-06
8.12404e-06
-3.92056e-06
1.29837e-05
-4.47079e-06
1.25506e-05
-4.11632e-06
1.05892e-05
-3.30302e-06
8.43191e-06
-2.32903e-06
6.50218e-06
-1.37402e-06
4.91359e-06
-5.39619e-07
3.64782e-06
1.17929e-07
2.63428e-06
5.63014e-07
1.78608e-06
7.62963e-07
1.00851e-06
6.76115e-07
1.92134e-07
2.46894e-07
-8.03157e-07
-5.84381e-07
-2.16891e-06
-1.83863e-06
-4.16345e-06
-3.39331e-06
-7.08848e-06
-4.7996e-06
-1.11328e-05
-5.1102e-06
-1.58676e-05
-3.20021e-06
-1.89194e-05
-1.32203e-05
-2.70523e-06
1.08293e-05
-3.32572e-06
1.36041e-05
-1.87586e-06
1.11008e-05
3.32466e-07
8.3809e-06
2.59819e-06
6.16619e-06
4.63655e-06
4.46382e-06
6.34721e-06
3.20294e-06
7.71234e-06
2.28268e-06
8.74601e-06
1.60061e-06
9.46444e-06
1.06765e-06
9.86752e-06
6.05429e-07
9.92446e-06
1.35198e-07
9.55996e-06
-4.38659e-07
8.64375e-06
-1.2527e-06
7.0003e-06
-2.51999e-06
4.48731e-06
-4.57549e-06
1.23918e-06
-7.8847e-06
-1.84195e-06
-1.27865e-05
-2.66401e-06
-1.80973e-05
-1.58843e-05
-1.79756e-06
1.26268e-05
1.78967e-06
1.00169e-05
6.71617e-06
6.17427e-06
1.10923e-05
4.00475e-06
1.46008e-05
2.65774e-06
1.73052e-05
1.75942e-06
1.93409e-05
1.1672e-06
2.08442e-05
7.79375e-07
2.19263e-05
5.18537e-07
2.26632e-05
3.30756e-07
2.30915e-05
1.7713e-07
2.32022e-05
2.45076e-08
2.29272e-05
-1.63666e-07
2.21142e-05
-4.39739e-07
2.04895e-05
-8.95249e-07
1.76313e-05
-1.71732e-06
1.30701e-05
-3.32356e-06
6.79701e-06
-6.51333e-06
7.07742e-07
-1.20081e-05
-1.51765e-05
1.26268e-05
2.26437e-05
2.8818e-05
3.28228e-05
3.54805e-05
3.72399e-05
3.84071e-05
3.91865e-05
3.9705e-05
4.00358e-05
4.02129e-05
4.02374e-05
4.00738e-05
3.9634e-05
3.87388e-05
3.70215e-05
3.36979e-05
2.71846e-05
1.51765e-05
)
;

boundaryField
{
    movingWall
    {
        type            calculated;
        value           uniform 0;
    }
    fixedWalls
    {
        type            calculated;
        value           uniform 0;
    }
    frontAndBack
    {
        type            empty;
        value           nonuniform 0();
    }
}


// ************************************************************************* //
