/*--------------------------------*- C++ -*----------------------------------*\
  =========                 |
  \\      /  F ield         | OpenFOAM: The Open Source CFD Toolbox
   \\    /   O peration     | Website:  https://openfoam.org
    \\  /    A nd           | Version:  6
     \\/     M anipulation  |
\*---------------------------------------------------------------------------*/
FoamFile
{
    version     2.0;
    format      ascii;
    class       surfaceScalarField;
    location    "0.025";
    object      phi;
}
// * * * * * * * * * * * * * * * * * * * * * * * * * * * * * * * * * * * * * //

dimensions      [0 3 -1 0 0 0 0];

internalField   nonuniform List<scalar> 
760
(
7.42464e-10
-7.4267e-10
-4.08359e-08
4.15784e-08
-1.17238e-07
7.64021e-08
-2.11848e-07
9.46107e-08
-3.10531e-07
9.86831e-08
-4.02761e-07
9.22298e-08
-4.81218e-07
7.84567e-08
-5.41052e-07
5.98339e-08
-5.79147e-07
3.80951e-08
-5.93604e-07
1.44561e-08
-5.83487e-07
-1.01169e-08
-5.48824e-07
-3.46631e-08
-4.9082e-07
-5.80042e-08
-4.1229e-07
-7.853e-08
-3.18286e-07
-9.40036e-08
-2.16818e-07
-1.01468e-07
-1.19401e-07
-9.74165e-08
-4.11049e-08
-7.82961e-08
1.0487e-09
-4.21535e-08
1.04889e-09
-4.05038e-08
3.97611e-08
-1.63629e-07
1.64704e-07
-3.49955e-07
2.62727e-07
-5.70838e-07
3.15494e-07
-7.98882e-07
3.26727e-07
-1.01186e-06
3.05209e-07
-1.19331e-06
2.59907e-07
-1.33177e-06
1.98294e-07
-1.41968e-06
1.26001e-07
-1.45245e-06
4.72282e-08
-1.42801e-06
-3.45614e-08
-1.34673e-06
-1.15939e-07
-1.2119e-06
-1.92832e-07
-1.03052e-06
-2.59914e-07
-8.14396e-07
-3.10127e-07
-5.81237e-07
-3.34626e-07
-3.55052e-07
-3.23601e-07
-1.64926e-07
-2.68422e-07
-4.03222e-08
-1.66757e-07
-3.92734e-08
-7.77727e-08
1.17534e-07
-2.7269e-07
3.59622e-07
-5.47621e-07
5.37659e-07
-8.63832e-07
6.31704e-07
-1.1858e-06
6.48698e-07
-1.48453e-06
6.03936e-07
-1.7382e-06
5.13574e-07
-1.93138e-06
3.9148e-07
-2.0538e-06
2.48422e-07
-2.09923e-06
9.26502e-08
-2.06485e-06
-6.89412e-08
-1.95125e-06
-2.2953e-07
-1.76297e-06
-3.81112e-07
-1.50951e-06
-5.13381e-07
-1.20669e-06
-6.12947e-07
-8.77912e-07
-6.634e-07
-5.54539e-07
-6.46975e-07
-2.744e-07
-5.48561e-07
-7.74558e-08
-3.63702e-07
-1.16729e-07
-1.0598e-07
2.23514e-07
-3.61833e-07
6.15475e-07
-7.12935e-07
8.88761e-07
-1.10937e-06
1.02814e-06
-1.50824e-06
1.04756e-06
-1.87547e-06
9.71164e-07
-2.1858e-06
8.23902e-07
-2.42151e-06
6.27196e-07
-2.57085e-06
3.97759e-07
-2.62665e-06
1.48447e-07
-2.58558e-06
-1.10004e-07
-2.44813e-06
-3.66988e-07
-2.21918e-06
-6.10057e-07
-1.9094e-06
-8.2316e-07
-1.5369e-06
-9.85446e-07
-1.12892e-06
-1.07139e-06
-7.2261e-07
-1.05328e-06
-3.64149e-07
-9.07022e-07
-1.05389e-07
-6.22462e-07
-2.22118e-07
-1.2953e-07
3.53044e-07
-4.4085e-07
9.26795e-07
-8.63369e-07
1.31128e-06
-1.33509e-06
1.49987e-06
-1.80518e-06
1.51765e-06
-2.23477e-06
1.40075e-06
-2.59594e-06
1.18507e-06
-2.86963e-06
9.00886e-07
-3.0434e-06
5.71523e-07
-3.10962e-06
2.14672e-07
-3.06452e-06
-1.55106e-07
-2.90802e-06
-5.23483e-07
-2.64462e-06
-8.73461e-07
-2.28504e-06
-1.18274e-06
-1.84861e-06
-1.42187e-06
-1.36571e-06
-1.55429e-06
-8.79441e-07
-1.53955e-06
-4.45442e-07
-1.34102e-06
-1.29016e-07
-9.38889e-07
-3.51134e-07
-1.53034e-07
5.06078e-07
-5.21712e-07
1.29547e-06
-1.01917e-06
1.80873e-06
-1.56984e-06
2.05054e-06
-2.11385e-06
2.06166e-06
-2.60725e-06
1.89415e-06
-3.01983e-06
1.59766e-06
-3.33187e-06
1.21293e-06
-3.53091e-06
7.70565e-07
-3.60929e-06
2.93048e-07
-3.56273e-06
-2.01668e-07
-3.39015e-06
-6.96062e-07
-3.09472e-06
-1.16889e-06
-2.68616e-06
-1.5913e-06
-2.18404e-06
-1.92399e-06
-1.62155e-06
-2.11678e-06
-1.0485e-06
-2.11261e-06
-5.32027e-07
-1.85749e-06
-1.53483e-07
-1.31743e-06
-5.04617e-07
-1.80582e-07
6.86661e-07
-6.15989e-07
1.73088e-06
-1.19993e-06
2.39267e-06
-1.84052e-06
2.69113e-06
-2.46724e-06
2.68838e-06
-3.0307e-06
2.45761e-06
-3.49888e-06
2.06584e-06
-3.85228e-06
1.56633e-06
-4.07928e-06
9.97566e-07
-4.17269e-06
3.86458e-07
-4.12776e-06
-2.46597e-07
-3.94182e-06
-8.82006e-07
-3.61558e-06
-1.49513e-06
-3.15624e-06
-2.05063e-06
-2.58225e-06
-2.49799e-06
-1.92893e-06
-2.7701e-06
-1.25363e-06
-2.78791e-06
-6.37864e-07
-2.47326e-06
-1.83591e-07
-1.77171e-06
-6.88208e-07
-2.16058e-07
9.02718e-07
-7.34893e-07
2.24972e-06
-1.42426e-06
3.08204e-06
-2.17149e-06
3.43836e-06
-2.89343e-06
3.41033e-06
-3.53517e-06
3.09935e-06
-4.064e-06
2.59466e-06
-4.46209e-06
1.96442e-06
-4.72002e-06
1.2555e-06
-4.83195e-06
4.98385e-07
-4.79281e-06
-2.85737e-07
-4.59766e-06
-1.07716e-06
-4.24322e-06
-1.84956e-06
-3.732e-06
-2.56186e-06
-3.07886e-06
-3.15113e-06
-2.31961e-06
-3.52936e-06
-1.51941e-06
-3.5881e-06
-7.77704e-07
-3.21496e-06
-2.2433e-07
-2.32508e-06
-9.12539e-07
-2.63689e-07
1.16641e-06
-8.90201e-07
2.87623e-06
-1.71054e-06
3.90238e-06
-2.58483e-06
4.31265e-06
-3.41519e-06
4.24068e-06
-4.14199e-06
3.82615e-06
-4.73401e-06
3.18668e-06
-5.17766e-06
2.40808e-06
-5.46788e-06
1.54572e-06
-5.60158e-06
6.3208e-07
-5.57384e-06
-3.13478e-07
-5.37675e-06
-1.27424e-06
-5.00112e-06
-2.22519e-06
-4.44151e-06
-3.12147e-06
-3.70524e-06
-3.8874e-06
-2.82493e-06
-4.40967e-06
-1.87235e-06
-4.54068e-06
-9.68551e-07
-4.11877e-06
-2.81723e-07
-3.01191e-06
-1.19426e-06
-3.28821e-07
1.49523e-06
-1.09542e-06
3.64283e-06
-2.07751e-06
4.88447e-06
-3.09957e-06
5.33471e-06
-4.04757e-06
5.18868e-06
-4.85974e-06
4.63833e-06
-5.51041e-06
3.83735e-06
-5.99422e-06
2.89188e-06
-6.31368e-06
1.86518e-06
-6.47065e-06
7.8905e-07
-6.4613e-06
-3.2283e-07
-6.27426e-06
-1.46128e-06
-5.89216e-06
-2.6073e-06
-5.29738e-06
-3.71624e-06
-4.4836e-06
-4.70118e-06
-3.47353e-06
-5.41974e-06
-2.34104e-06
-5.67317e-06
-1.23108e-06
-5.22873e-06
-3.63874e-07
-3.87912e-06
-1.55813e-06
-4.18813e-07
1.91404e-06
-1.36652e-06
4.59054e-06
-2.54301e-06
6.06095e-06
-3.72744e-06
6.51913e-06
-4.79056e-06
6.25181e-06
-5.67426e-06
5.52203e-06
-6.36514e-06
4.52823e-06
-6.87195e-06
3.39869e-06
-7.20919e-06
2.20243e-06
-7.3866e-06
9.66456e-07
-7.40302e-06
-3.06413e-07
-7.2437e-06
-1.6206e-06
-6.88107e-06
-2.96993e-06
-6.2805e-06
-4.31682e-06
-5.4137e-06
-5.56798e-06
-4.28244e-06
-6.551e-06
-2.95231e-06
-7.0033e-06
-1.58971e-06
-6.59132e-06
-4.8204e-07
-4.98679e-06
-2.04018e-06
-5.4408e-07
2.45812e-06
-1.72137e-06
5.76783e-06
-3.11885e-06
7.45843e-06
-4.46196e-06
7.86224e-06
-5.61291e-06
7.40275e-06
-6.5284e-06
6.43752e-06
-7.21771e-06
5.21754e-06
-7.71138e-06
3.89237e-06
-8.04111e-06
2.53215e-06
-8.22789e-06
1.15324e-06
-8.2755e-06
-2.58801e-07
-8.16693e-06
-1.72916e-06
-7.8637e-06
-3.27316e-06
-7.30999e-06
-4.87053e-06
-6.44601e-06
-6.43196e-06
-5.23665e-06
-7.76035e-06
-3.71965e-06
-8.5203e-06
-2.06941e-06
-8.24157e-06
-6.51484e-07
-6.40471e-06
-2.69166e-06
-7.19457e-07
3.17758e-06
-2.17655e-06
7.22493e-06
-3.79836e-06
9.08024e-06
-5.25637e-06
9.32026e-06
-6.42261e-06
8.56899e-06
-7.28812e-06
7.30303e-06
-7.89909e-06
5.82852e-06
-8.31648e-06
4.30976e-06
-8.59379e-06
2.80945e-06
-8.76612e-06
1.32557e-06
-8.84461e-06
-1.80308e-07
-8.81266e-06
-1.76112e-06
-8.62297e-06
-3.46284e-06
-8.19771e-06
-5.2958e-06
-7.43781e-06
-7.19186e-06
-6.25208e-06
-8.94608e-06
-4.61884e-06
-1.01535e-05
-2.68644e-06
-1.0174e-05
-8.91866e-07
-8.19929e-06
-3.58353e-06
-9.66239e-07
4.14382e-06
-2.7391e-06
8.99779e-06
-4.53124e-06
1.08724e-05
-5.98416e-06
1.07732e-05
-7.01947e-06
9.6043e-06
-7.69262e-06
7.97619e-06
-8.10324e-06
6.23913e-06
-8.34905e-06
4.55557e-06
-8.50654e-06
2.96695e-06
-8.62489e-06
1.44392e-06
-8.72406e-06
-8.11404e-08
-8.79204e-06
-1.69314e-06
-8.7794e-06
-3.47548e-06
-8.59272e-06
-5.48248e-06
-8.09366e-06
-7.69092e-06
-7.11878e-06
-9.92096e-06
-5.54492e-06
-1.17274e-05
-3.42843e-06
-1.22905e-05
-1.22641e-06
-1.04013e-05
-4.80994e-06
-1.31386e-06
5.45768e-06
-3.38554e-06
1.10695e-05
-5.17453e-06
1.26614e-05
-6.37347e-06
1.19721e-05
-7.02662e-06
1.02574e-05
-7.29224e-06
8.2418e-06
-7.3352e-06
6.2821e-06
-7.28752e-06
4.50789e-06
-7.24132e-06
2.92075e-06
-7.25363e-06
1.45623e-06
-7.35154e-06
1.67653e-08
-7.53244e-06
-1.51224e-06
-7.75685e-06
-3.25107e-06
-7.93358e-06
-5.30576e-06
-7.90183e-06
-7.72267e-06
-7.4265e-06
-1.03963e-05
-6.24298e-06
-1.29109e-05
-4.21298e-06
-1.43205e-05
-1.67562e-06
-1.29387e-05
-6.48556e-06
-1.7906e-06
7.24828e-06
-4.00184e-06
1.32807e-05
-5.39291e-06
1.40525e-05
-5.90111e-06
1.24803e-05
-5.80223e-06
1.01586e-05
-5.3873e-06
7.82687e-06
-4.87718e-06
5.77198e-06
-4.41573e-06
4.04644e-06
-4.08879e-06
2.59381e-06
-3.9455e-06
1.31294e-06
-4.01296e-06
8.42215e-08
-4.30118e-06
-1.22401e-06
-4.79647e-06
-2.75578e-06
-5.44023e-06
-4.662e-06
-6.09159e-06
-7.0713e-06
-6.48238e-06
-1.00055e-05
-6.20121e-06
-1.31921e-05
-4.79797e-06
-1.57237e-05
-2.22739e-06
-1.55092e-05
-8.71295e-06
-2.3636e-06
9.61187e-06
-4.20797e-06
1.51251e-05
-4.44797e-06
1.42925e-05
-3.62319e-06
1.16555e-05
-2.34015e-06
8.87553e-06
-9.95507e-07
6.48223e-06
1.92776e-07
4.58369e-06
1.12277e-06
3.11644e-06
1.75402e-06
1.96256e-06
2.06988e-06
9.97075e-07
2.05589e-06
9.82112e-08
1.6905e-06
-8.58621e-07
9.47886e-07
-2.01316e-06
-1.82099e-07
-3.53201e-06
-1.64592e-06
-5.60748e-06
-3.23949e-06
-8.41193e-06
-4.49186e-06
-1.19397e-05
-4.59454e-06
-1.5621e-05
-2.73773e-06
-1.73661e-05
-1.14507e-05
-2.71084e-06
1.23227e-05
-2.87137e-06
1.52856e-05
-7.53296e-07
1.21744e-05
2.08756e-06
8.81468e-06
4.81581e-06
6.14727e-06
7.10918e-06
4.18886e-06
8.88775e-06
2.80513e-06
1.01729e-05
1.83134e-06
1.10131e-05
1.12235e-06
1.14467e-05
5.63414e-07
1.14841e-05
6.07913e-08
1.10989e-05
-4.73346e-07
1.02244e-05
-1.13869e-06
8.76059e-06
-2.06821e-06
6.60597e-06
-3.45286e-06
3.74932e-06
-5.55528e-06
4.72197e-07
-8.66259e-06
-2.28913e-06
-1.28597e-05
-2.67716e-06
-1.6978e-05
-1.41278e-05
-1.07138e-06
1.33941e-05
3.38636e-06
1.08279e-05
9.01513e-06
6.54562e-06
1.38353e-05
3.99447e-06
1.75147e-05
2.46793e-06
2.01779e-05
1.52561e-06
2.20386e-05
9.44472e-07
2.32896e-05
5.80362e-07
2.40723e-05
3.3963e-07
2.44727e-05
1.63022e-07
2.45233e-05
1.02017e-08
2.42024e-05
-1.52503e-07
2.34269e-05
-3.63198e-07
2.20373e-05
-6.78633e-07
1.97823e-05
-1.1978e-06
1.63309e-05
-2.10388e-06
1.14034e-05
-3.7351e-06
5.22759e-06
-6.6839e-06
-1.76588e-07
-1.15738e-05
-1.43044e-05
1.33941e-05
2.42219e-05
3.07676e-05
3.4762e-05
3.723e-05
3.87556e-05
3.97001e-05
4.02804e-05
4.062e-05
4.07831e-05
4.07933e-05
4.06408e-05
4.02776e-05
3.95989e-05
3.84011e-05
3.62973e-05
3.25622e-05
2.58783e-05
1.43044e-05
)
;

boundaryField
{
    movingWall
    {
        type            calculated;
        value           uniform 0;
    }
    fixedWalls
    {
        type            calculated;
        value           uniform 0;
    }
    frontAndBack
    {
        type            empty;
        value           nonuniform 0();
    }
}


// ************************************************************************* //
