/*--------------------------------*- C++ -*----------------------------------*\
  =========                 |
  \\      /  F ield         | OpenFOAM: The Open Source CFD Toolbox
   \\    /   O peration     | Website:  https://openfoam.org
    \\  /    A nd           | Version:  6
     \\/     M anipulation  |
\*---------------------------------------------------------------------------*/
FoamFile
{
    version     2.0;
    format      ascii;
    class       volScalarField;
    location    "0.065";
    object      p;
}
// * * * * * * * * * * * * * * * * * * * * * * * * * * * * * * * * * * * * * //

dimensions      [0 2 -2 0 0 0 0];

internalField   nonuniform List<scalar> 
400
(
1.42381e-05
-0.023171
-0.0520461
-0.074298
-0.0826169
-0.0737297
-0.0473914
-0.00553573
0.0484144
0.110062
0.174439
0.236354
0.29074
0.333037
0.359656
0.368565
0.360024
0.337443
0.308344
0.285163
0.0229998
-0.000827386
-0.0234869
-0.0388283
-0.0432565
-0.0344733
-0.0121809
0.022227
0.0661553
0.116183
0.168386
0.218642
0.262943
0.297732
0.320273
0.329087
0.324477
0.308853
0.285998
0.262211
0.0535444
0.0205264
-0.0039922
-0.0181414
-0.0217401
-0.0135363
0.00644878
0.036866
0.075445
0.11926
0.164964
0.209036
0.24804
0.278901
0.299192
0.307459
0.303675
0.289198
0.264427
0.231441
0.0816273
0.0359506
0.005463
-0.0106718
-0.0150676
-0.0073996
0.0118361
0.0410467
0.0779529
0.119781
0.163417
0.205592
0.243081
0.272922
0.29263
0.300461
0.295884
0.279335
0.248463
0.202729
0.100734
0.0416809
0.0040438
-0.0149357
-0.020264
-0.0124393
0.00752045
0.0376513
0.0754998
0.118265
0.162882
0.206145
0.244845
0.275932
0.296672
0.304874
0.299434
0.279953
0.241733
0.182421
0.106187
0.0334873
-0.0116062
-0.0333538
-0.0389489
-0.0296717
-0.00711059
0.0263009
0.0678146
0.114474
0.163135
0.210519
0.253294
0.288174
0.312023
0.322071
0.316554
0.294256
0.248318
0.174999
0.0939303
0.00717458
-0.0452504
-0.0689897
-0.0734669
-0.0608089
-0.033266
0.00615688
0.0543215
0.108031
0.163979
0.218738
0.26876
0.310418
0.34004
0.354129
0.350123
0.325885
0.272302
0.184357
0.0596326
-0.0418449
-0.101085
-0.125292
-0.126459
-0.107765
-0.0722799
-0.0236952
0.0343908
0.0985049
0.165167
0.230784
0.291571
0.343494
0.382243
0.403417
0.403437
0.378974
0.318245
0.214756
-0.00203262
-0.119158
-0.184195
-0.206408
-0.201065
-0.17278
-0.125681
-0.0642778
0.0073347
0.0854364
0.166437
0.246654
0.322118
0.3884
0.440468
0.472825
0.480554
0.458654
0.391854
0.271617
-0.0980894
-0.231959
-0.300925
-0.317312
-0.300865
-0.258252
-0.194984
-0.11652
-0.0274334
0.0684297
0.167539
0.266311
0.360758
0.446162
0.516757
0.565749
0.586461
0.571481
0.500665
0.362323
-0.238202
-0.389855
-0.459304
-0.463847
-0.429669
-0.366396
-0.281312
-0.180918
-0.0701336
0.0473195
0.168288
0.289624
0.407649
0.517611
0.613126
0.685965
0.72719
0.725923
0.654934
0.497289
-0.436281
-0.606069
-0.66956
-0.652659
-0.591107
-0.498687
-0.384841
-0.257046
-0.120251
0.0224035
0.168649
0.316305
0.462535
0.603046
0.731187
0.837337
0.909837
0.932955
0.86896
0.691731
-0.713559
-0.89938
-0.944684
-0.89085
-0.787839
-0.65497
-0.503974
-0.3429
-0.176057
-0.0052683
0.168834
0.345802
0.524432
0.701717
0.87149
1.02321
1.14233
1.20671
1.16313
0.968978
-1.10501
-1.29726
-1.30072
-1.18486
-1.02001
-0.831972
-0.634149
-0.434026
-0.23405
-0.0336009
0.169347
0.377075
0.591099
0.810938
1.03231
1.24506
1.43244
1.56487
1.56721
1.36721
-1.67259
-1.84049
-1.75569
-1.53744
-1.28213
-1.02082
-0.766116
-0.522472
-0.288404
-0.0592731
0.170851
0.408134
0.658116
0.924557
1.20735
1.49951
1.78483
2.02755
2.12494
1.95306
-2.52801
-2.58721
-2.32552
-1.94251
-1.55886
-1.20422
-0.884433
-0.596176
-0.330889
-0.0779459
0.173781
0.43543
0.717896
1.03124
1.38289
1.77419
2.19597
2.6132
2.89778
2.84434
-3.87298
-3.61303
-3.01648
-2.38084
-1.82323
-1.3564
-0.968431
-0.640386
-0.352249
-0.0853189
0.177721
0.453643
0.759675
1.11427
1.5369
2.04546
2.64949
3.33064
3.96436
4.24909
-6.15939
-5.01372
-3.78643
-2.79026
-2.01927
-1.43416
-0.988409
-0.636618
-0.34253
-0.0781203
0.179949
0.453532
0.765987
1.14534
1.62785
2.25902
3.08471
4.13979
5.42508
6.62752
-10.5695
-6.84898
-4.35763
-2.91496
-1.96811
-1.32304
-0.8751
-0.54554
-0.282397
-0.0515837
0.17245
0.412795
0.695043
1.05336
1.53995
2.23476
3.24506
4.76457
7.34527
11.1677
-17.9825
-8.61119
-4.15441
-2.37805
-1.46163
-0.91836
-0.578358
-0.344493
-0.163414
-0.00552031
0.148983
0.317291
0.519153
0.783979
1.16482
1.76028
2.74772
4.6212
9.19198
18.678
)
;

boundaryField
{
    movingWall
    {
        type            zeroGradient;
    }
    fixedWalls
    {
        type            zeroGradient;
    }
    frontAndBack
    {
        type            empty;
    }
}


// ************************************************************************* //
