/*--------------------------------*- C++ -*----------------------------------*\
  =========                 |
  \\      /  F ield         | OpenFOAM: The Open Source CFD Toolbox
   \\    /   O peration     | Website:  https://openfoam.org
    \\  /    A nd           | Version:  6
     \\/     M anipulation  |
\*---------------------------------------------------------------------------*/
FoamFile
{
    version     2.0;
    format      ascii;
    class       volVectorField;
    location    "0.065";
    object      U;
}
// * * * * * * * * * * * * * * * * * * * * * * * * * * * * * * * * * * * * * //

dimensions      [0 1 -1 0 0 0 0];

internalField   nonuniform List<vector> 
400
(
(0.000256253 -0.000252745 0)
(0.00015748 0.000107272 0)
(-0.00114748 0.000566215 0)
(-0.00345683 0.000894544 0)
(-0.00637546 0.00106056 0)
(-0.00949618 0.00107651 0)
(-0.0124522 0.000967089 0)
(-0.0149407 0.000760889 0)
(-0.0167325 0.000486262 0)
(-0.0176735 0.000170345 0)
(-0.0176845 -0.000160475 0)
(-0.0167616 -0.000479653 0)
(-0.0149772 -0.000759606 0)
(-0.012483 -0.000971184 0)
(-0.00951063 -0.00108388 0)
(-0.00637001 -0.00106767 0)
(-0.00343683 -0.000897872 0)
(-0.00112489 -0.000564209 0)
(0.000171398 -0.000102032 0)
(0.00025999 0.000255662 0)
(-6.90381e-05 -0.000187132 0)
(-0.0015752 0.00161944 0)
(-0.00563368 0.00361452 0)
(-0.0116721 0.00506341 0)
(-0.0188888 0.00579265 0)
(-0.0264515 0.00580939 0)
(-0.0335616 0.00519969 0)
(-0.0395307 0.00408717 0)
(-0.0438233 0.00260969 0)
(-0.0460741 0.000909234 0)
(-0.0460948 -0.000870647 0)
(-0.0438779 -0.00258441 0)
(-0.0395997 -0.00408361 0)
(-0.0336205 -0.00521802 0)
(-0.0264801 -0.00584102 0)
(-0.0188797 -0.00582316 0)
(-0.0116343 -0.00507856 0)
(-0.00558891 -0.00360773 0)
(-0.00154554 -0.00159815 0)
(-6.02506e-05 0.000201502 0)
(-0.000515393 0.00104324 0)
(-0.00366061 0.0056747 0)
(-0.0105136 0.0102144 0)
(-0.0199408 0.0134659 0)
(-0.0307766 0.0150483 0)
(-0.0419067 0.0149389 0)
(-0.0522562 0.0133093 0)
(-0.0608898 0.0104383 0)
(-0.0670758 0.00665551 0)
(-0.070313 0.00231249 0)
(-0.0703426 -0.00222905 0)
(-0.0671549 -0.00660107 0)
(-0.0609924 -0.0104314 0)
(-0.052349 -0.0133506 0)
(-0.041961 -0.0150101 0)
(-0.0307795 -0.0151184 0)
(-0.0199006 -0.0135033 0)
(-0.0104575 -0.0102034 0)
(-0.00361998 -0.00562866 0)
(-0.000502464 -0.0010077 0)
(-0.000910663 0.0033927 0)
(-0.00563258 0.0121224 0)
(-0.0152305 0.0199189 0)
(-0.0278989 0.0253111 0)
(-0.0420633 0.0277787 0)
(-0.0563545 0.0273081 0)
(-0.0694873 0.0241941 0)
(-0.0803574 0.0189137 0)
(-0.0881088 0.0120371 0)
(-0.0921582 0.00417826 0)
(-0.0922045 -0.00402837 0)
(-0.0882348 -0.0119368 0)
(-0.0805279 -0.0188954 0)
(-0.0696558 -0.0242608 0)
(-0.0564778 -0.0274307 0)
(-0.0421164 -0.0279053 0)
(-0.0278844 -0.0253865 0)
(-0.0151788 -0.019912 0)
(-0.00558614 -0.0120495 0)
(-0.000894063 -0.00332914 0)
(-0.00125947 0.00674709 0)
(-0.00748478 0.0208313 0)
(-0.0197796 0.0325479 0)
(-0.0356219 0.0403138 0)
(-0.0529837 0.0435885 0)
(-0.0702336 0.0424525 0)
(-0.0859033 0.0373878 0)
(-0.0987662 0.0291185 0)
(-0.107892 0.0184943 0)
(-0.112654 0.00642242 0)
(-0.112732 -0.00616315 0)
(-0.108106 -0.0183129 0)
(-0.0990673 -0.0290676 0)
(-0.0862231 -0.0374764 0)
(-0.0705038 -0.0426407 0)
(-0.0531563 -0.0437986 0)
(-0.035685 -0.0404583 0)
(-0.0197627 -0.0325692 0)
(-0.0074437 -0.0207411 0)
(-0.00124077 -0.00665246 0)
(-0.00159153 0.0110466 0)
(-0.00930356 0.0317677 0)
(-0.024301 0.0480975 0)
(-0.0433088 0.0584547 0)
(-0.0638064 0.0624099 0)
(-0.0838883 0.0602533 0)
(-0.101922 0.0527436 0)
(-0.116598 0.0409147 0)
(-0.126954 0.025934 0)
(-0.132358 0.00902262 0)
(-0.132486 -0.00857715 0)
(-0.127313 -0.0256066 0)
(-0.117118 -0.0407887 0)
(-0.102501 -0.0528411 0)
(-0.0844183 -0.0605247 0)
(-0.0642019 -0.0627462 0)
(-0.0435303 -0.0587231 0)
(-0.0243687 -0.0481966 0)
(-0.00928806 -0.0316892 0)
(-0.00157428 -0.0109253 0)
(-0.00193655 0.0162939 0)
(-0.0111885 0.0449652 0)
(-0.0289621 0.0666057 0)
(-0.0511639 0.0797327 0)
(-0.0747396 0.0841775 0)
(-0.097508 0.0805849 0)
(-0.117703 0.0701045 0)
(-0.13398 0.0541546 0)
(-0.145397 0.0342581 0)
(-0.151359 0.0119577 0)
(-0.151561 -0.0112063 0)
(-0.145969 -0.0336818 0)
(-0.134823 -0.0538824 0)
(-0.118672 -0.0701823 0)
(-0.0984417 -0.0809579 0)
(-0.075495 -0.0846998 0)
(-0.0516551 -0.0802098 0)
(-0.0291864 -0.0668679 0)
(-0.0112297 -0.0449577 0)
(-0.00192688 -0.0161631 0)
(-0.00232243 0.0225499 0)
(-0.0132362 0.0605312 0)
(-0.0339178 0.0881459 0)
(-0.0593415 0.104129 0)
(-0.0858713 0.108764 0)
(-0.111068 0.103234 0)
(-0.133091 0.0892203 0)
(-0.150635 0.0686111 0)
(-0.162851 0.0433156 0)
(-0.169236 0.0151891 0)
(-0.169536 -0.0139648 0)
(-0.163704 -0.0423439 0)
(-0.151911 -0.0680856 0)
(-0.134594 -0.0892272 0)
(-0.112568 -0.103722 0)
(-0.0871485 -0.109548 0)
(-0.0602408 -0.104935 0)
(-0.0343933 -0.0887015 0)
(-0.0133774 -0.0606949 0)
(-0.0023295 -0.0224465 0)
(-0.00277829 0.0299305 0)
(-0.0155426 0.0786415 0)
(-0.0393001 0.112806 0)
(-0.0679146 0.131561 0)
(-0.097118 0.13591 0)
(-0.124268 0.127817 0)
(-0.147548 0.109669 0)
(-0.165811 0.0839112 0)
(-0.178404 0.0528585 0)
(-0.18499 0.0186429 0)
(-0.185403 -0.0167357 0)
(-0.17959 -0.0513026 0)
(-0.16761 -0.0829873 0)
(-0.149712 -0.109524 0)
(-0.126489 -0.12842 0)
(-0.0990859 -0.137039 0)
(-0.0693772 -0.132848 0)
(-0.0401397 -0.113836 0)
(-0.015839 -0.0791285 0)
(-0.00281478 -0.0299176 0)
(-0.00334229 0.0386101 0)
(-0.0182188 0.0995291 0)
(-0.0452224 0.140638 0)
(-0.0768516 0.161794 0)
(-0.108168 0.165113 0)
(-0.136441 0.153667 0)
(-0.16005 0.130751 0)
(-0.178171 0.099454 0)
(-0.190488 0.062487 0)
(-0.196924 0.0221863 0)
(-0.197455 -0.0193606 0)
(-0.192021 -0.0601287 0)
(-0.180528 -0.0979515 0)
(-0.162943 -0.130337 0)
(-0.139493 -0.154356 0)
(-0.110968 -0.166664 0)
(-0.0790277 -0.163737 0)
(-0.0465485 -0.142375 0)
(-0.0187363 -0.10055 0)
(-0.00342476 -0.0387841 0)
(-0.00407568 0.0488412 0)
(-0.0214197 0.123474 0)
(-0.05179 0.171589 0)
(-0.0859788 0.194316 0)
(-0.118394 0.195478 0)
(-0.146435 0.179687 0)
(-0.168945 0.151371 0)
(-0.185651 0.114323 0)
(-0.196743 0.0715947 0)
(-0.202516 0.0256035 0)
(-0.203142 -0.0216344 0)
(-0.198565 -0.0682153 0)
(-0.188496 -0.112043 0)
(-0.172516 -0.150534 0)
(-0.150316 -0.18039 0)
(-0.122084 -0.197495 0)
(-0.0889744 -0.197085 0)
(-0.0537151 -0.174299 0)
(-0.0222306 -0.125299 0)
(-0.00422485 -0.049338 0)
(-0.00508807 0.0610022 0)
(-0.0253876 0.150795 0)
(-0.0590962 0.205379 0)
(-0.0948922 0.228146 0)
(-0.126686 0.225517 0)
(-0.152411 0.204181 0)
(-0.171752 0.169914 0)
(-0.185275 0.127208 0)
(-0.19386 0.0793241 0)
(-0.198275 0.0285737 0)
(-0.198937 -0.023307 0)
(-0.195807 -0.0747546 0)
(-0.188375 -0.123964 0)
(-0.175754 -0.168472 0)
(-0.15692 -0.20476 0)
(-0.131161 -0.227967 0)
(-0.0987068 -0.231863 0)
(-0.061689 -0.209329 0)
(-0.0265614 -0.153739 0)
(-0.00532873 -0.0620014 0)
(-0.00658174 0.0756943 0)
(-0.0305072 0.181817 0)
(-0.0671629 0.241295 0)
(-0.102749 0.261552 0)
(-0.131155 0.252889 0)
(-0.151517 0.224673 0)
(-0.164878 0.184149 0)
(-0.172944 0.136365 0)
(-0.177428 0.0845527 0)
(-0.179625 0.0306627 0)
(-0.180219 -0.0240964 0)
(-0.179202 -0.0787474 0)
(-0.175855 -0.132039 0)
(-0.168796 -0.181913 0)
(-0.156163 -0.224915 0)
(-0.136039 -0.255615 0)
(-0.107184 -0.266211 0)
(-0.0703916 -0.246681 0)
(-0.0320932 -0.186209 0)
(-0.00694182 -0.0774185 0)
(-0.00892162 0.0939071 0)
(-0.0373429 0.216752 0)
(-0.0757146 0.277786 0)
(-0.107793 0.291602 0)
(-0.12856 0.274079 0)
(-0.139385 0.237759 0)
(-0.143245 0.19121 0)
(-0.143208 0.139665 0)
(-0.141832 0.0859498 0)
(-0.140881 0.0313431 0)
(-0.141261 -0.0237204 0)
(-0.143009 -0.0790754 0)
(-0.14527 -0.134287 0)
(-0.146263 -0.188042 0)
(-0.14331 -0.237383 0)
(-0.133101 -0.276753 0)
(-0.11233 -0.296977 0)
(-0.0793561 -0.284623 0)
(-0.0393355 -0.222855 0)
(-0.00942838 -0.096611 0)
(-0.0126999 0.117242 0)
(-0.0465066 0.255307 0)
(-0.0834946 0.311726 0)
(-0.106324 0.313563 0)
(-0.113297 0.284133 0)
(-0.109353 0.239135 0)
(-0.0998331 0.187797 0)
(-0.0890971 0.13484 0)
(-0.0802896 0.0821655 0)
(-0.0753958 0.0300718 0)
(-0.075399 -0.0219527 0)
(-0.0803849 -0.0746822 0)
(-0.0895205 -0.128676 0)
(-0.100905 -0.1837 0)
(-0.111357 -0.237858 0)
(-0.116307 -0.286254 0)
(-0.110003 -0.319116 0)
(-0.087 -0.319694 0)
(-0.0487727 -0.263187 0)
(-0.0133649 -0.121177 0)
(-0.0185822 0.148236 0)
(-0.057803 0.295685 0)
(-0.0864063 0.337094 0)
(-0.0905879 0.320178 0)
(-0.0757174 0.276639 0)
(-0.0514477 0.224034 0)
(-0.0252648 0.17078 0)
(-0.00215186 0.12003 0)
(0.0148297 0.0722124 0)
(0.0239684 0.0264495 0)
(0.0244628 -0.0187083 0)
(0.0161942 -0.0648983 0)
(-0.0002631 -0.113657 0)
(-0.0233879 -0.166014 0)
(-0.050219 -0.221707 0)
(-0.0756946 -0.277625 0)
(-0.0919691 -0.325037 0)
(-0.0887379 -0.345372 0)
(-0.0599316 -0.305 0)
(-0.01935 -0.153572 0)
(-0.0261484 0.191105 0)
(-0.0672209 0.332212 0)
(-0.073066 0.342522 0)
(-0.0448408 0.30078 0)
(0.000331189 0.244167 0)
(0.0486684 0.188267 0)
(0.092268 0.138278 0)
(0.127071 0.0946548 0)
(0.151207 0.0560264 0)
(0.163913 0.0204548 0)
(0.164894 -0.0141387 0)
(0.154035 -0.049882 0)
(0.131398 -0.0889485 0)
(0.0974963 -0.133467 0)
(0.0539558 -0.185083 0)
(0.00469285 -0.24362 0)
(-0.042276 -0.303926 0)
(-0.0726566 -0.34976 0)
(-0.0682831 -0.34196 0)
(-0.0267556 -0.197774 0)
(-0.0286872 0.24893 0)
(-0.0581833 0.34849 0)
(-0.0153995 0.308215 0)
(0.0610687 0.242126 0)
(0.140366 0.180824 0)
(0.210126 0.130875 0)
(0.266174 0.091742 0)
(0.30767 0.0607861 0)
(0.335116 0.0352449 0)
(0.349241 0.012748 0)
(0.350474 -0.0087548 0)
(0.338752 -0.0312179 0)
(0.313502 -0.0567541 0)
(0.273789 -0.0878781 0)
(0.21881 -0.127613 0)
(0.149058 -0.178992 0)
(0.0684355 -0.242968 0)
(-0.0106998 -0.312912 0)
(-0.056613 -0.356739 0)
(-0.0283683 -0.256032 0)
(0.0132475 0.287614 0)
(0.0288537 0.301524 0)
(0.151502 0.213635 0)
(0.279685 0.142603 0)
(0.379918 0.0945405 0)
(0.454434 0.0626287 0)
(0.508327 0.0411757 0)
(0.545513 0.0261018 0)
(0.568999 0.0146987 0)
(0.580769 0.00519169 0)
(0.581788 -0.00370045 0)
(0.572062 -0.0131114 0)
(0.550629 -0.0243339 0)
(0.515444 -0.0391813 0)
(0.463321 -0.0604736 0)
(0.390006 -0.0925682 0)
(0.289907 -0.141664 0)
(0.160111 -0.215001 0)
(0.034239 -0.305704 0)
(0.0158704 -0.292142 0)
(0.304279 0.146877 0)
(0.404862 0.127586 0)
(0.567544 0.074964 0)
(0.684225 0.0421604 0)
(0.752016 0.0241471 0)
(0.79345 0.0141631 0)
(0.820061 0.00846033 0)
(0.837038 0.00499806 0)
(0.847207 0.00267426 0)
(0.852112 0.000888205 0)
(0.852432 -0.000727605 0)
(0.848196 -0.00247162 0)
(0.838786 -0.0047029 0)
(0.822716 -0.00800682 0)
(0.797182 -0.0134749 0)
(0.756964 -0.0231845 0)
(0.690407 -0.0410409 0)
(0.574191 -0.0741039 0)
(0.409764 -0.127675 0)
(0.3066 -0.147726 0)
)
;

boundaryField
{
    movingWall
    {
        type            fixedValue;
        value           uniform (1 0 0);
    }
    fixedWalls
    {
        type            noSlip;
    }
    frontAndBack
    {
        type            empty;
    }
}


// ************************************************************************* //
