/*--------------------------------*- C++ -*----------------------------------*\
  =========                 |
  \\      /  F ield         | OpenFOAM: The Open Source CFD Toolbox
   \\    /   O peration     | Website:  https://openfoam.org
    \\  /    A nd           | Version:  6
     \\/     M anipulation  |
\*---------------------------------------------------------------------------*/
FoamFile
{
    version     2.0;
    format      ascii;
    class       surfaceScalarField;
    location    "0.235";
    object      phi;
}
// * * * * * * * * * * * * * * * * * * * * * * * * * * * * * * * * * * * * * //

dimensions      [0 3 -1 0 0 0 0];

internalField   nonuniform List<scalar> 
760
(
1.37352e-09
-1.37291e-09
-3.55856e-08
3.69591e-08
-1.04297e-07
6.87111e-08
-1.90715e-07
8.6418e-08
-2.83628e-07
9.29135e-08
-3.74912e-07
9.12833e-08
-4.58473e-07
8.35616e-08
-5.29165e-07
7.06923e-08
-5.82008e-07
5.28426e-08
-6.11954e-07
2.99459e-08
-6.14261e-07
2.30768e-09
-5.85433e-07
-2.88287e-08
-5.24575e-07
-6.08577e-08
-4.3489e-07
-8.96858e-08
-3.24788e-07
-1.10102e-07
-2.08002e-07
-1.16786e-07
-1.02119e-07
-1.05883e-07
-2.54913e-08
-7.66282e-08
7.6319e-09
-3.31232e-08
7.63191e-09
-3.77189e-08
3.6346e-08
-1.52056e-07
1.51297e-07
-3.25561e-07
2.42216e-07
-5.341e-07
2.94957e-07
-7.55508e-07
3.14321e-07
-9.71676e-07
3.07451e-07
-1.16791e-06
2.798e-07
-1.33159e-06
2.34365e-07
-1.45102e-06
1.72278e-07
-1.51526e-06
9.41809e-08
-1.51483e-06
1.87898e-09
-1.44356e-06
-1.00095e-07
-1.30109e-06
-2.03334e-07
-1.09548e-06
-2.95293e-07
-8.45122e-07
-3.60459e-07
-5.78557e-07
-3.83351e-07
-3.31267e-07
-3.53173e-07
-1.38944e-07
-2.68951e-07
-2.75084e-08
-1.44559e-07
-1.98764e-08
-7.57846e-08
1.12131e-07
-2.62294e-07
3.37806e-07
-5.24531e-07
5.04452e-07
-8.29479e-07
5.99905e-07
-1.14824e-06
6.33078e-07
-1.45686e-06
6.16079e-07
-1.73549e-06
5.5843e-07
-1.96681e-06
4.65686e-07
-2.1349e-06
3.40361e-07
-2.22496e-06
1.84246e-07
-2.22436e-06
1.27342e-09
-2.12478e-06
-1.99673e-07
-1.92546e-06
-4.02649e-07
-1.63669e-06
-5.84072e-07
-1.28242e-06
-7.14729e-07
-9.00526e-07
-7.65241e-07
-5.38858e-07
-7.14841e-07
-2.46466e-07
-5.61343e-07
-6.13627e-08
-3.29662e-07
-8.12391e-08
-1.06422e-07
2.18553e-07
-3.55732e-07
5.87115e-07
-6.95008e-07
8.43728e-07
-1.08158e-06
9.86473e-07
-1.48096e-06
1.03246e-06
-1.86554e-06
1.00066e-06
-2.21259e-06
9.05474e-07
-2.50216e-06
7.55257e-07
-2.71559e-06
5.53795e-07
-2.83504e-06
3.03698e-07
-2.84444e-06
1.06661e-08
-2.73193e-06
-3.12183e-07
-2.49379e-06
-6.40784e-07
-2.1392e-06
-9.38666e-07
-1.69457e-06
-1.15936e-06
-1.20534e-06
-1.25447e-06
-7.32395e-07
-1.18779e-06
-3.41437e-07
-9.52301e-07
-8.72175e-08
-5.83882e-07
-1.68457e-07
-1.31688e-07
3.50241e-07
-4.35745e-07
8.91172e-07
-8.43469e-07
1.25145e-06
-1.30282e-06
1.44582e-06
-1.77445e-06
1.50409e-06
-2.22839e-06
1.4546e-06
-2.64064e-06
1.31772e-06
-2.99009e-06
1.10471e-06
-3.25626e-06
8.19964e-07
-3.41828e-06
4.65716e-07
-3.45547e-06
4.786e-08
-3.34989e-06
-4.17765e-07
-3.09101e-06
-8.99656e-07
-2.6825e-06
-1.34718e-06
-2.14966e-06
-1.6922e-06
-1.54473e-06
-1.8594e-06
-9.45166e-07
-1.78735e-06
-4.40811e-07
-1.45666e-06
-1.10854e-07
-9.13838e-07
-2.79311e-07
-1.53958e-07
5.04198e-07
-5.07805e-07
1.24502e-06
-9.78966e-07
1.72261e-06
-1.50679e-06
1.97364e-06
-2.04788e-06
2.04519e-06
-2.57111e-06
1.97782e-06
-3.0526e-06
1.79922e-06
-3.47139e-06
1.5235e-06
-3.806e-06
1.15457e-06
-4.03241e-06
6.92127e-07
-4.12383e-06
1.39282e-07
-4.05289e-06
-4.8871e-07
-3.79711e-06
-1.15544e-06
-3.34829e-06
-1.79599e-06
-2.72495e-06
-2.31554e-06
-1.98397e-06
-2.60038e-06
-1.22382e-06
-2.5475e-06
-5.70119e-07
-2.11036e-06
-1.40347e-07
-1.34361e-06
-4.19658e-07
-1.75166e-07
6.79364e-07
-5.76929e-07
1.64678e-06
-1.10969e-06
2.25538e-06
-1.70486e-06
2.56881e-06
-2.3159e-06
2.65623e-06
-2.91183e-06
2.57376e-06
-3.47052e-06
2.3579e-06
-3.97268e-06
2.02567e-06
-4.39706e-06
1.57895e-06
-4.71679e-06
1.01186e-06
-4.89774e-06
3.20229e-07
-4.89959e-06
-4.86863e-07
-4.68164e-06
-1.37338e-06
-4.21513e-06
-2.2625e-06
-3.50237e-06
-3.0283e-06
-2.59876e-06
-3.50399e-06
-1.62649e-06
-3.51977e-06
-7.62293e-07
-2.97455e-06
-1.85673e-07
-1.92023e-06
-6.05331e-07
-1.96765e-07
8.76129e-07
-6.46995e-07
2.09701e-06
-1.24166e-06
2.85004e-06
-1.90442e-06
3.23156e-06
-2.58654e-06
3.33835e-06
-3.25871e-06
3.24593e-06
-3.90242e-06
3.00161e-06
-4.50218e-06
2.62543e-06
-5.03885e-06
2.11561e-06
-5.48402e-06
1.45704e-06
-5.79603e-06
6.32234e-07
-5.91893e-06
-3.63964e-07
-5.78752e-06
-1.50479e-06
-5.342e-06
-2.70802e-06
-4.5548e-06
-3.81551e-06
-3.46691e-06
-4.59188e-06
-2.22036e-06
-4.76632e-06
-1.05871e-06
-4.1362e-06
-2.59787e-07
-2.71915e-06
-8.65118e-07
-2.19853e-07
1.09598e-06
-7.20822e-07
2.59798e-06
-1.37855e-06
3.50777e-06
-2.10842e-06
3.96143e-06
-2.8603e-06
4.09023e-06
-3.60818e-06
3.99381e-06
-4.33933e-06
3.73276e-06
-5.04457e-06
3.33067e-06
-5.7096e-06
2.78065e-06
-6.30709e-06
2.05453e-06
-6.78958e-06
1.11472e-06
-7.08528e-06
-6.827e-08
-7.10056e-06
-1.4895e-06
-6.73515e-06
-3.07344e-06
-5.91526e-06
-4.6354e-06
-4.646e-06
-5.86114e-06
-3.07172e-06
-6.34061e-06
-1.50877e-06
-5.69915e-06
-3.80126e-07
-3.84779e-06
-1.24524e-06
-2.45603e-07
1.34159e-06
-8.01004e-07
3.15338e-06
-1.52259e-06
4.22935e-06
-2.316e-06
4.75485e-06
-3.13024e-06
4.90447e-06
-3.94415e-06
4.80771e-06
-4.75283e-06
4.54145e-06
-5.55593e-06
4.13377e-06
-6.34721e-06
3.57192e-06
-7.10428e-06
2.8116e-06
-7.77841e-06
1.78886e-06
-8.2862e-06
4.39514e-07
-8.50783e-06
-1.26787e-06
-8.29926e-06
-3.28201e-06
-7.52684e-06
-5.40782e-06
-6.13149e-06
-7.25649e-06
-4.22163e-06
-8.25047e-06
-2.16464e-06
-7.75614e-06
-5.70729e-07
-5.4417e-06
-1.81597e-06
-2.76064e-07
1.61765e-06
-8.91548e-07
3.76886e-06
-1.67651e-06
5.01432e-06
-2.52429e-06
5.60262e-06
-3.38331e-06
5.76349e-06
-4.23862e-06
5.66302e-06
-5.09461e-06
5.39744e-06
-5.96156e-06
5.00072e-06
-6.84412e-06
4.45448e-06
-7.72967e-06
3.69715e-06
-8.57573e-06
2.63491e-06
-9.29775e-06
1.16154e-06
-9.76188e-06
-8.03738e-07
-9.7897e-06
-3.25419e-06
-9.18514e-06
-6.01238e-06
-7.79796e-06
-8.64367e-06
-5.6417e-06
-1.04067e-05
-3.06476e-06
-1.03331e-05
-8.64331e-07
-7.64213e-06
-2.6803e-06
-3.15583e-07
1.93323e-06
-1.00054e-06
4.45383e-06
-1.84653e-06
5.8603e-06
-2.73105e-06
6.48714e-06
-3.60283e-06
6.63528e-06
-4.45435e-06
6.51453e-06
-5.29988e-06
6.24297e-06
-6.16078e-06
5.86162e-06
-7.05426e-06
5.34795e-06
-7.98219e-06
4.62509e-06
-8.91821e-06
3.57094e-06
-9.79336e-06
2.03669e-06
-1.04831e-05
-1.13969e-07
-1.08007e-05
-2.93661e-06
-1.05052e-05
-6.30787e-06
-9.34442e-06
-9.80447e-06
-7.17267e-06
-1.25785e-05
-4.19567e-06
-1.33101e-05
-1.29988e-06
-1.05379e-05
-3.98019e-06
-3.73355e-07
2.30659e-06
-1.14427e-06
5.22474e-06
-2.04601e-06
6.76204e-06
-2.93745e-06
7.37858e-06
-3.77086e-06
7.46869e-06
-4.54853e-06
7.2922e-06
-5.2948e-06
6.98924e-06
-6.0412e-06
6.60801e-06
-6.81746e-06
6.12422e-06
-7.64344e-06
5.45107e-06
-8.51883e-06
4.44632e-06
-9.40959e-06
2.92746e-06
-1.02311e-05
7.07517e-07
-1.08282e-05
-2.33949e-06
-1.09569e-05
-6.17922e-06
-1.02851e-05
-1.04762e-05
-8.47058e-06
-1.4393e-05
-5.42825e-06
-1.63524e-05
-1.90323e-06
-1.40629e-05
-5.88341e-06
-4.68186e-07
2.77477e-06
-1.35311e-06
6.10967e-06
-2.29852e-06
7.70745e-06
-3.14741e-06
8.22747e-06
-3.86574e-06
8.18702e-06
-4.47164e-06
7.8981e-06
-5.00089e-06
7.5185e-06
-5.49412e-06
7.10124e-06
-5.9923e-06
6.6224e-06
-6.53406e-06
5.99283e-06
-7.15108e-06
5.06335e-06
-7.85893e-06
3.6353e-06
-8.63993e-06
1.48852e-06
-9.41382e-06
-1.5656e-06
-9.99289e-06
-5.60015e-06
-1.003e-05
-1.04391e-05
-9.01129e-06
-1.54117e-05
-6.45456e-06
-1.89092e-05
-2.63796e-06
-1.78795e-05
-8.52137e-06
-6.37382e-07
3.41216e-06
-1.67871e-06
7.151e-06
-2.63452e-06
8.66326e-06
-3.35355e-06
8.94651e-06
-3.84082e-06
8.67428e-06
-4.14346e-06
8.20074e-06
-4.31374e-06
7.68877e-06
-4.40198e-06
7.18948e-06
-4.45862e-06
6.67903e-06
-4.53825e-06
6.07246e-06
-4.70253e-06
5.22763e-06
-5.01826e-06
3.95104e-06
-5.54545e-06
2.01571e-06
-6.3073e-06
-8.03752e-07
-7.23141e-06
-4.67604e-06
-8.05226e-06
-9.61824e-06
-8.19259e-06
-1.52714e-05
-6.78194e-06
-2.03198e-05
-3.33724e-06
-2.13242e-05
-1.18586e-05
-9.51273e-07
4.36343e-06
-2.19407e-06
8.39379e-06
-3.0591e-06
9.52828e-06
-3.47698e-06
9.36439e-06
-3.54482e-06
8.74212e-06
-3.36193e-06
8.01785e-06
-3.00617e-06
7.33301e-06
-2.53984e-06
6.72315e-06
-2.02021e-06
6.1594e-06
-1.51093e-06
5.56319e-06
-1.09255e-06
4.80924e-06
-8.6902e-07
3.72751e-06
-9.65081e-07
2.11177e-06
-1.50606e-06
-2.62775e-07
-2.5659e-06
-3.6162e-06
-4.05476e-06
-8.12938e-06
-5.50415e-06
-1.3822e-05
-5.82299e-06
-2.0001e-05
-3.66136e-06
-2.34859e-05
-1.552e-05
-1.52688e-06
5.89031e-06
-2.93191e-06
9.79882e-06
-3.39786e-06
9.99423e-06
-3.15234e-06
9.11887e-06
-2.47617e-06
8.06596e-06
-1.54653e-06
7.08821e-06
-4.70137e-07
6.25662e-06
6.83327e-07
5.56969e-06
1.85862e-06
4.98411e-06
2.99603e-06
4.42577e-06
4.01421e-06
3.79106e-06
4.79618e-06
2.94554e-06
5.18227e-06
1.72568e-06
4.97559e-06
-5.6095e-08
3.97092e-06
-2.61153e-06
2.03949e-06
-6.19795e-06
-6.32766e-07
-1.11497e-05
-3.03747e-06
-1.75962e-05
-3.12342e-06
-2.33999e-05
-1.86434e-05
-2.48147e-06
8.37179e-06
-3.46308e-06
1.07804e-05
-2.64892e-06
9.18008e-06
-1.02625e-06
7.4962e-06
8.74638e-07
6.16508e-06
2.84173e-06
5.12111e-06
4.78559e-06
4.31276e-06
6.6637e-06
3.69158e-06
8.44957e-06
3.19823e-06
1.011e-05
2.76536e-06
1.15849e-05
2.31619e-06
1.27699e-05
1.76048e-06
1.3503e-05
9.92554e-07
1.35569e-05
-1.09987e-07
1.26424e-05
-1.69703e-06
1.04398e-05
-3.99535e-06
6.75148e-06
-7.46138e-06
2.11127e-06
-1.2956e-05
-1.16561e-06
-2.0123e-05
-1.9809e-05
-2.92655e-06
1.12983e-05
-6.16604e-07
8.47048e-06
3.26896e-06
5.29451e-06
6.96155e-06
3.80361e-06
1.02326e-05
2.89404e-06
1.3118e-05
2.23573e-06
1.56663e-05
1.7644e-06
1.79268e-05
1.43111e-06
1.99394e-05
1.18569e-06
2.17198e-05
9.84914e-07
2.32464e-05
7.89574e-07
2.44473e-05
5.59635e-07
2.51875e-05
2.52336e-07
2.52561e-05
-1.78603e-07
2.43485e-05
-7.89408e-07
2.20378e-05
-1.68468e-06
1.77554e-05
-3.17903e-06
1.10768e-05
-6.27743e-06
3.27983e-06
-1.2326e-05
-1.65292e-05
1.12983e-05
1.97688e-05
2.50633e-05
2.88669e-05
3.1761e-05
3.39967e-05
3.57611e-05
3.71922e-05
3.83779e-05
3.93628e-05
4.01524e-05
4.0712e-05
4.09644e-05
4.07858e-05
3.99963e-05
3.83117e-05
3.51326e-05
2.88552e-05
1.65292e-05
)
;

boundaryField
{
    movingWall
    {
        type            calculated;
        value           uniform 0;
    }
    fixedWalls
    {
        type            calculated;
        value           uniform 0;
    }
    frontAndBack
    {
        type            empty;
        value           nonuniform 0();
    }
}


// ************************************************************************* //
