/*--------------------------------*- C++ -*----------------------------------*\
  =========                 |
  \\      /  F ield         | OpenFOAM: The Open Source CFD Toolbox
   \\    /   O peration     | Website:  https://openfoam.org
    \\  /    A nd           | Version:  6
     \\/     M anipulation  |
\*---------------------------------------------------------------------------*/
FoamFile
{
    version     2.0;
    format      ascii;
    class       volScalarField;
    location    "0.165";
    object      p;
}
// * * * * * * * * * * * * * * * * * * * * * * * * * * * * * * * * * * * * * //

dimensions      [0 2 -2 0 0 0 0];

internalField   nonuniform List<scalar> 
400
(
-1.43041e-08
-0.000280463
-0.000511086
-0.000563839
-0.000403315
-2.51661e-05
0.000560799
0.00133763
0.00228272
0.00336514
0.00454201
0.0057556
0.00693307
0.00799005
0.00883963
0.00940752
0.00965259
0.00958755
0.0092957
0.00896847
0.000279865
-9.62369e-06
-0.000176044
-0.000171521
7.33254e-06
0.000366829
0.000904855
0.00161121
0.00246851
0.00345009
0.00451728
0.00561766
0.00668551
0.00764581
0.00842294
0.00895468
0.00921049
0.00920408
0.00898157
0.00864772
0.000521888
0.000136645
-4.30404e-05
-2.67863e-05
0.000152473
0.000495774
0.00100319
0.00166866
0.00247972
0.00341457
0.00443884
0.00550351
0.00654495
0.0074886
0.00825741
0.00878631
0.00904184
0.00903183
0.00877239
0.00832476
0.000583831
8.63356e-05
-0.000138423
-0.000135194
3.37438e-05
0.000363412
0.000854392
0.00150384
0.00230416
0.00323867
0.00427711
0.00537229
0.0064588
0.00745566
0.00827474
0.00883704
0.0090967
0.00905301
0.00870578
0.00811066
0.000396292
-0.000203778
-0.000477766
-0.000494283
-0.000338304
-1.90715e-05
0.000465239
0.00111565
0.00193022
0.00289822
0.0039941
0.00517218
0.00636322
0.00747525
0.00840151
0.00903962
0.00932281
0.00923873
0.00878013
0.00802084
-8.78522e-05
-0.000784396
-0.00110815
-0.00114634
-0.00100312
-0.000690676
-0.000204943
0.000460117
0.0013096
0.00234054
0.00353393
0.00484693
0.00620615
0.00750509
0.00861051
0.00938463
0.00972676
0.00960454
0.0090052
0.0080395
-0.000907238
-0.00170272
-0.00207836
-0.00213942
-0.0020092
-0.00170255
-0.00121241
-0.000526326
0.000369995
0.00148434
0.00280811
0.00430537
0.0059014
0.00747412
0.00885584
0.00985708
0.0103216
0.0101774
0.00939426
0.00813631
-0.00210141
-0.00300641
-0.00343867
-0.00352486
-0.00341092
-0.00311536
-0.00262776
-0.00192785
-0.000989444
0.00021039
0.00167988
0.0033983
0.00529819
0.00724697
0.00903754
0.0104081
0.0111117
0.0109956
0.00997449
0.00827676
-0.00371776
-0.00475016
-0.00524623
-0.00536147
-0.00527164
-0.00500151
-0.00453778
-0.00385149
-0.00290201
-0.00164622
-5.02701e-05
0.00189407
0.0041448
0.00657677
0.00895009
0.0109108
0.0120683
0.0121103
0.0108061
0.00843787
-0.00581622
-0.00700056
-0.00756814
-0.00771593
-0.00766157
-0.00744077
-0.00703928
-0.00642002
-0.00552707
-0.00429347
-0.00265049
-0.000542464
0.00204502
0.00503555
0.00819235
0.0110688
0.0130633
0.0135653
0.012006
0.00864313
-0.00847484
-0.0098417
-0.0104836
-0.0106603
-0.0106507
-0.0105089
-0.0102231
-0.00975139
-0.0090257
-0.00795652
-0.00643568
-0.00434197
-0.00156239
0.00194887
0.00605065
0.0102651
0.0137316
0.015325
0.0137663
0.00904034
-0.0118006
-0.0133846
-0.0140864
-0.0142668
-0.0142962
-0.0142568
-0.0141443
-0.0139181
-0.0135069
-0.0128092
-0.011685
-0.00994098
-0.00732463
-0.00356679
0.00145764
0.00742869
0.0132882
0.0171359
0.0163503
0.0100714
-0.0159533
-0.0177849
-0.0184884
-0.018597
-0.0186203
-0.0186783
-0.0187765
-0.0188829
-0.0189375
-0.0188483
-0.0184683
-0.0175491
-0.0156813
-0.0122747
-0.00670898
0.00120959
0.010532
0.0184401
0.0201142
0.012837
-0.0212005
-0.0232766
-0.0238216
-0.0236817
-0.0235765
-0.0236632
-0.0239505
-0.0244182
-0.0250314
-0.0257338
-0.0264077
-0.0267892
-0.0263329
-0.0240825
-0.0187255
-0.00911726
0.00450667
0.0186927
0.0257412
0.0197201
-0.0280412
-0.0302319
-0.0302271
-0.0294756
-0.0289917
-0.0289358
-0.0292912
-0.0300395
-0.0311745
-0.0326899
-0.0345231
-0.0364296
-0.0377697
-0.0372503
-0.0328205
-0.0221109
-0.00397043
0.0184269
0.034838
0.0349013
-0.0374854
-0.0392534
-0.0377912
-0.0357524
-0.0344679
-0.0339756
-0.0341677
-0.034997
-0.0364667
-0.0386047
-0.0413872
-0.0445768
-0.0474456
-0.0484171
-0.0448212
-0.0331668
-0.0106576
0.0209916
0.0509343
0.0642697
-0.0517549
-0.0512959
-0.046404
-0.0419678
-0.0392803
-0.0379628
-0.037706
-0.0383749
-0.0399305
-0.0423756
-0.0456522
-0.0494445
-0.0528594
-0.0540178
-0.0497439
-0.0357421
-0.00791187
0.0341049
0.081643
0.116933
-0.0767502
-0.0676771
-0.0554403
-0.0470229
-0.0421832
-0.0396647
-0.0387879
-0.0392093
-0.0407454
-0.0432791
-0.0466151
-0.050241
-0.052976
-0.0525353
-0.0451788
-0.0258166
0.0108482
0.067634
0.141016
0.213138
-0.130978
-0.0881129
-0.0598028
-0.0460833
-0.0393177
-0.0360822
-0.0351735
-0.0359151
-0.0378633
-0.0407206
-0.0441224
-0.0473384
-0.048895
-0.0461174
-0.0346781
-0.00834387
0.0406544
0.120411
0.238602
0.385169
-0.255981
-0.103653
-0.0441698
-0.029613
-0.0252094
-0.0238833
-0.0248331
-0.0273311
-0.030744
-0.0346928
-0.0387751
-0.0422031
-0.0434263
-0.039685
-0.0264858
0.00315616
0.0600956
0.162635
0.338775
0.609306
)
;

boundaryField
{
    movingWall
    {
        type            zeroGradient;
    }
    fixedWalls
    {
        type            zeroGradient;
    }
    frontAndBack
    {
        type            empty;
    }
}


// ************************************************************************* //
