/*--------------------------------*- C++ -*----------------------------------*\
  =========                 |
  \\      /  F ield         | OpenFOAM: The Open Source CFD Toolbox
   \\    /   O peration     | Website:  https://openfoam.org
    \\  /    A nd           | Version:  6
     \\/     M anipulation  |
\*---------------------------------------------------------------------------*/
FoamFile
{
    version     2.0;
    format      ascii;
    class       volScalarField;
    location    "0.04";
    object      p;
}
// * * * * * * * * * * * * * * * * * * * * * * * * * * * * * * * * * * * * * //

dimensions      [0 2 -2 0 0 0 0];

internalField   nonuniform List<scalar> 
400
(
1.73297e-05
-0.0347845
-0.0781279
-0.111573
-0.124098
-0.110756
-0.0711741
-0.00827934
0.0727533
0.165289
0.26185
0.354653
0.436121
0.499456
0.539319
0.552684
0.539937
0.506162
0.462594
0.427794
0.0345169
-0.00124298
-0.035263
-0.0583351
-0.0650157
-0.0518284
-0.0183259
0.0333798
0.0993614
0.174455
0.252753
0.328073
0.394427
0.446514
0.480265
0.493484
0.486622
0.463266
0.42905
0.39333
0.0803686
0.0308234
-0.00599703
-0.0272925
-0.0327302
-0.0204029
0.00965452
0.0553926
0.113367
0.179153
0.247708
0.313751
0.372151
0.418333
0.448696
0.461087
0.455463
0.43384
0.396768
0.347254
0.122639
0.0540824
0.00827983
-0.0160151
-0.022647
-0.0110979
0.017878
0.0618539
0.11736
0.18019
0.245645
0.308822
0.364912
0.409519
0.438966
0.450678
0.443865
0.419155
0.372969
0.304355
0.151592
0.062917
0.00634578
-0.0222367
-0.0302503
-0.0184125
0.011727
0.0571658
0.114154
0.178428
0.245357
0.310129
0.367969
0.414364
0.445283
0.457498
0.449372
0.420288
0.363135
0.274201
0.160256
0.0510167
-0.0167989
-0.0495441
-0.057911
-0.0437969
-0.00962857
0.0408599
0.10345
0.173626
0.246623
0.317523
0.381374
0.433331
0.468787
0.483671
0.475382
0.442088
0.373428
0.263567
0.142588
0.0121175
-0.0667685
-0.102487
-0.109081
-0.0897324
-0.0478947
0.011803
0.0845223
0.165359
0.249293
0.331178
0.405755
0.467686
0.511603
0.532382
0.52626
0.490042
0.409998
0.278337
0.0921076
-0.0606552
-0.149843
-0.186203
-0.187656
-0.158996
-0.104951
-0.0312331
0.0565844
0.15315
0.253164
0.351233
0.441751
0.518807
0.576115
0.607255
0.606989
0.570371
0.479695
0.324919
0.00079934
-0.175711
-0.273662
-0.306895
-0.29829
-0.254853
-0.182964
-0.0896304
0.0187744
0.13649
0.258028
0.377859
0.490115
0.588327
0.665184
0.712692
0.723682
0.690762
0.591048
0.411425
-0.141964
-0.34393
-0.447799
-0.472031
-0.446316
-0.380822
-0.284094
-0.164648
-0.0296371
0.114943
0.263672
0.411161
0.551532
0.677919
0.781972
0.853844
0.883823
0.860997
0.755277
0.548839
-0.350869
-0.57988
-0.684411
-0.690432
-0.63745
-0.540186
-0.409964
-0.256952
-0.0888983
0.0883481
0.269908
0.451037
0.626332
0.788911
0.929564
1.03639
1.09642
1.09367
0.987602
0.752598
-0.647104
-0.903666
-0.999033
-0.97219
-0.877206
-0.735205
-0.560876
-0.365957
-0.158297
0.0570839
0.276617
0.497001
0.714095
0.921732
1.11036
1.26609
1.37202
1.40507
1.3092
1.0452
-1.06304
-1.34385
-1.41144
-1.32817
-1.16976
-0.965828
-0.734652
-0.488909
-0.235535
0.02241
0.283802
0.547927
0.81309
1.07505
1.325
1.54778
1.7223
1.81612
1.75025
1.46111
-1.65194
-1.9422
-1.9461
-1.76837
-1.51565
-1.22752
-0.924902
-0.619667
-0.315966
-0.0131773
0.291565
0.601634
0.919387
1.24434
1.57052
1.88335
2.15861
2.3529
2.35479
2.05678
-2.50788
-2.76059
-2.63056
-2.29737
-1.90714
-1.50759
-1.11849
-0.747156
-0.391786
-0.0456843
0.299897
0.654152
1.02544
1.41958
1.83678
2.26719
2.68743
3.04508
3.18768
2.93101
-3.79999
-3.88704
-3.48933
-2.90666
-2.32192
-1.78093
-1.29323
-0.854356
-0.451791
-0.0697851
0.308249
0.698963
1.11871
1.58267
2.10225
2.67991
3.30279
3.91968
4.34026
4.25898
-5.83242
-5.43569
-4.53243
-3.56807
-2.7203
-2.00973
-1.41903
-0.920092
-0.483059
-0.079991
0.315019
0.72708
1.18201
1.70751
2.33287
3.08519
3.97938
4.98925
5.92967
6.35121
-9.28485
-7.55095
-5.69685
-4.18852
-3.01864
-2.12957
-1.4517
-0.916899
-0.470844
-0.0715364
0.315989
0.724472
1.1889
1.75126
2.4659
3.40103
4.62562
6.19288
8.10495
9.89565
-15.9314
-10.3233
-6.56605
-4.38393
-2.9483
-1.96851
-1.28695
-0.785253
-0.385463
-0.0364838
0.299969
0.65848
1.07738
1.60784
2.32804
3.35759
4.85667
7.11562
10.9622
16.6723
-27.0777
-12.99
-6.27687
-3.58852
-2.19645
-1.36869
-0.848532
-0.489876
-0.212805
0.0269829
0.259112
0.509317
0.807175
1.1968
1.75781
2.63776
4.10086
6.88634
13.7135
27.916
)
;

boundaryField
{
    movingWall
    {
        type            zeroGradient;
    }
    fixedWalls
    {
        type            zeroGradient;
    }
    frontAndBack
    {
        type            empty;
    }
}


// ************************************************************************* //
