/*--------------------------------*- C++ -*----------------------------------*\
  =========                 |
  \\      /  F ield         | OpenFOAM: The Open Source CFD Toolbox
   \\    /   O peration     | Website:  https://openfoam.org
    \\  /    A nd           | Version:  6
     \\/     M anipulation  |
\*---------------------------------------------------------------------------*/
FoamFile
{
    version     2.0;
    format      ascii;
    class       volVectorField;
    location    "0.04";
    object      U;
}
// * * * * * * * * * * * * * * * * * * * * * * * * * * * * * * * * * * * * * //

dimensions      [0 1 -1 0 0 0 0];

internalField   nonuniform List<vector> 
400
(
(0.000257169 -0.000253556 0)
(0.000159941 0.0001059 0)
(-0.00114394 0.000565335 0)
(-0.00345342 0.000894518 0)
(-0.00637403 0.00106114 0)
(-0.00949762 0.00107714 0)
(-0.0124559 0.000967238 0)
(-0.014945 0.000760258 0)
(-0.0167352 0.000484896 0)
(-0.0176731 0.000168611 0)
(-0.0176804 -0.000162024 0)
(-0.0167546 -0.000480483 0)
(-0.0149693 -0.000759397 0)
(-0.0124764 -0.000969968 0)
(-0.00950726 -0.00108206 0)
(-0.00637042 -0.00106588 0)
(-0.00344009 -0.000896737 0)
(-0.00112886 -0.000563996 0)
(0.000169265 -0.000102415 0)
(0.000259692 0.000255477 0)
(-6.70052e-05 -0.000189741 0)
(-0.00156963 0.00161535 0)
(-0.0056259 0.00361254 0)
(-0.0116648 0.00506483 0)
(-0.0188852 0.00579645 0)
(-0.0264531 0.00581333 0)
(-0.0335671 0.00520152 0)
(-0.0395369 0.0040856 0)
(-0.0438264 0.00260485 0)
(-0.0460711 0.000902595 0)
(-0.0460849 -0.000876852 0)
(-0.0438628 -0.00258798 0)
(-0.0395829 -0.00408322 0)
(-0.0336064 -0.00521374 0)
(-0.0264722 -0.00583443 0)
(-0.0188793 -0.00581681 0)
(-0.0116396 -0.00507494 0)
(-0.00559605 -0.00360802 0)
(-0.00154984 -0.00160118 0)
(-6.11295e-05 0.000199277 0)
(-0.000512542 0.00103746 0)
(-0.00365287 0.00566674 0)
(-0.0105032 0.0102115 0)
(-0.0199321 0.0134705 0)
(-0.0307735 0.0150579 0)
(-0.0419105 0.0149485 0)
(-0.0522648 0.0133141 0)
(-0.0608987 0.0104354 0)
(-0.0670798 0.00664533 0)
(-0.0703082 0.00229821 0)
(-0.0703279 -0.00224256 0)
(-0.0671325 -0.00660902 0)
(-0.0609671 -0.0104308 0)
(-0.0523267 -0.0133416 0)
(-0.0419468 -0.014996 0)
(-0.0307755 -0.0151046 0)
(-0.0199053 -0.0134954 0)
(-0.0104659 -0.0102042 0)
(-0.00362578 -0.00563611 0)
(-0.000503917 -0.00101381 0)
(-0.000907068 0.003382 0)
(-0.00562355 0.0121093 0)
(-0.0152203 0.0199156 0)
(-0.0278934 0.0253204 0)
(-0.0420671 0.0277959 0)
(-0.0563679 0.0273244 0)
(-0.0695064 0.0242014 0)
(-0.0803752 0.0189076 0)
(-0.0881181 0.0120184 0)
(-0.0921535 0.00415262 0)
(-0.0921844 -0.00405265 0)
(-0.088202 -0.0119515 0)
(-0.0804889 -0.0188954 0)
(-0.0696188 -0.0242459 0)
(-0.0564502 -0.0274061 0)
(-0.0421025 -0.0278803 0)
(-0.0278837 -0.0253708 0)
(-0.0151859 -0.0199111 0)
(-0.0055926 -0.0120608 0)
(-0.000895999 -0.00333967 0)
(-0.00125537 0.00673085 0)
(-0.00747633 0.0208144 0)
(-0.0197747 0.0325478 0)
(-0.0356284 0.0403327 0)
(-0.0530061 0.0436174 0)
(-0.07027 0.0424776 0)
(-0.0859459 0.0373969 0)
(-0.098804 0.0291056 0)
(-0.107914 0.0184612 0)
(-0.112653 0.00637824 0)
(-0.112705 -0.00620534 0)
(-0.108057 -0.0183402 0)
(-0.0990048 -0.0290716 0)
(-0.0861592 -0.037456 0)
(-0.0704502 -0.0426031 0)
(-0.0531212 -0.0437575 0)
(-0.0356705 -0.0404291 0)
(-0.0197635 -0.032562 0)
(-0.00744896 -0.0207544 0)
(-0.0012429 -0.0066678 0)
(-0.00158751 0.0110255 0)
(-0.00929908 0.0317516 0)
(-0.0243098 0.0481085 0)
(-0.0433409 0.058492 0)
(-0.0638649 0.0624575 0)
(-0.0839668 0.06029 0)
(-0.102007 0.0527523 0)
(-0.116671 0.0408878 0)
(-0.127 0.0258757 0)
(-0.132365 0.00894715 0)
(-0.13245 -0.00865009 0)
(-0.127239 -0.0256574 0)
(-0.117018 -0.0408038 0)
(-0.102393 -0.0528173 0)
(-0.0843203 -0.060471 0)
(-0.0641287 -0.0626817 0)
(-0.0434886 -0.0586709 0)
(-0.024355 -0.0481747 0)
(-0.00928874 -0.0316994 0)
(-0.001576 -0.0109447 0)
(-0.00193364 0.0162708 0)
(-0.0111932 0.0449595 0)
(-0.0289965 0.0666417 0)
(-0.0512403 0.0798022 0)
(-0.0748573 0.0842535 0)
(-0.0976531 0.0806364 0)
(-0.117853 0.0701083 0)
(-0.134107 0.0541023 0)
(-0.145478 0.0341578 0)
(-0.151378 0.011831 0)
(-0.151513 -0.01133 0)
(-0.14586 -0.0337735 0)
(-0.134669 -0.0539207 0)
(-0.118499 -0.0701601 0)
(-0.0982756 -0.080885 0)
(-0.075361 -0.0846018 0)
(-0.0515678 -0.0801204 0)
(-0.0291462 -0.0668166 0)
(-0.0112207 -0.0449546 0)
(-0.00192717 -0.0161837 0)
(-0.00232217 0.0225308 0)
(-0.0132573 0.0605524 0)
(-0.0339937 0.0882284 0)
(-0.0594852 0.104251 0)
(-0.0860753 0.108881 0)
(-0.111308 0.103303 0)
(-0.13333 0.0892112 0)
(-0.150835 0.068516 0)
(-0.162982 0.0431492 0)
(-0.169275 0.0149836 0)
(-0.169474 -0.0141673 0)
(-0.16355 -0.0425012 0)
(-0.151686 -0.0681656 0)
(-0.134332 -0.0892157 0)
(-0.112308 -0.103628 0)
(-0.0869269 -0.109404 0)
(-0.0600848 -0.104788 0)
(-0.0343107 -0.0885989 0)
(-0.0133514 -0.0606617 0)
(-0.00232686 -0.022462 0)
(-0.00278283 0.029926 0)
(-0.0155892 0.0787147 0)
(-0.0394361 0.112965 0)
(-0.0681516 0.13176 0)
(-0.097437 0.136082 0)
(-0.124628 0.127904 0)
(-0.147899 0.109634 0)
(-0.166102 0.0837501 0)
(-0.178594 0.0525952 0)
(-0.185051 0.0183238 0)
(-0.185327 -0.0170521 0)
(-0.179385 -0.0515577 0)
(-0.167301 -0.083134 0)
(-0.149342 -0.109538 0)
(-0.126109 -0.128306 0)
(-0.098749 -0.136835 0)
(-0.0691267 -0.132618 0)
(-0.0399959 -0.113652 0)
(-0.0157868 -0.0790395 0)
(-0.00280714 -0.0299174 0)
(-0.00335443 0.038636 0)
(-0.0183019 0.099689 0)
(-0.0454388 0.140912 0)
(-0.0772071 0.1621 0)
(-0.108627 0.165355 0)
(-0.136942 0.153769 0)
(-0.160527 0.130673 0)
(-0.178561 0.099198 0)
(-0.190742 0.0620911 0)
(-0.197012 0.0217146 0)
(-0.197366 -0.0198305 0)
(-0.191764 -0.0605188 0)
(-0.180132 -0.0981962 0)
(-0.162455 -0.130397 0)
(-0.138977 -0.154229 0)
(-0.110493 -0.166389 0)
(-0.0786578 -0.163395 0)
(-0.0463228 -0.14207 0)
(-0.0186469 -0.10037 0)
(-0.00340941 -0.0387521 0)
(-0.00409897 0.0489201 0)
(-0.0215513 0.123765 0)
(-0.0521055 0.172022 0)
(-0.0864709 0.194758 0)
(-0.119002 0.195798 0)
(-0.147078 0.179793 0)
(-0.169541 0.151225 0)
(-0.18613 0.11394 0)
(-0.197054 0.0710308 0)
(-0.20263 0.024942 0)
(-0.203048 -0.0222956 0)
(-0.198269 -0.0687776 0)
(-0.188026 -0.11242 0)
(-0.171921 -0.150668 0)
(-0.149665 -0.180262 0)
(-0.121463 -0.197143 0)
(-0.0884679 -0.196605 0)
(-0.0533888 -0.173829 0)
(-0.0220919 -0.124982 0)
(-0.00419843 -0.0492514 0)
(-0.00512682 0.0611638 0)
(-0.0255794 0.15127 0)
(-0.0595224 0.206016 0)
(-0.0955219 0.228747 0)
(-0.127429 0.225913 0)
(-0.153165 0.204272 0)
(-0.172428 0.169673 0)
(-0.185807 0.126669 0)
(-0.194203 0.0785648 0)
(-0.198406 0.027697 0)
(-0.198848 -0.0241854 0)
(-0.195501 -0.0755181 0)
(-0.187873 -0.124507 0)
(-0.175096 -0.168711 0)
(-0.156171 -0.204658 0)
(-0.130413 -0.227546 0)
(-0.098065 -0.231225 0)
(-0.061251 -0.20865 0)
(-0.026362 -0.153233 0)
(-0.00528729 -0.06183 0)
(-0.00664096 0.0759753 0)
(-0.0307678 0.18253 0)
(-0.0676953 0.24217 0)
(-0.103485 0.262312 0)
(-0.131972 0.253336 0)
(-0.152303 0.224715 0)
(-0.16555 0.183783 0)
(-0.173455 0.135651 0)
(-0.177753 0.0835906 0)
(-0.179755 0.0295705 0)
(-0.180152 -0.0251925 0)
(-0.178936 -0.07972 0)
(-0.175396 -0.132767 0)
(-0.168163 -0.182292 0)
(-0.155401 -0.224876 0)
(-0.135229 -0.255154 0)
(-0.106442 -0.265419 0)
(-0.0698478 -0.245761 0)
(-0.0318252 -0.185457 0)
(-0.00688111 -0.0771249 0)
(-0.00900662 0.0943498 0)
(-0.0376725 0.217746 0)
(-0.0763176 0.278904 0)
(-0.108552 0.292488 0)
(-0.129329 0.274527 0)
(-0.140062 0.237706 0)
(-0.143778 0.190694 0)
(-0.143586 0.13878 0)
(-0.142064 0.084812 0)
(-0.140981 0.0300757 0)
(-0.141235 -0.0249932 0)
(-0.142849 -0.0802286 0)
(-0.144961 -0.135194 0)
(-0.14579 -0.188582 0)
(-0.142679 -0.237456 0)
(-0.132357 -0.276309 0)
(-0.111577 -0.296072 0)
(-0.0787455 -0.283464 0)
(-0.0390012 -0.221815 0)
(-0.00934466 -0.0961526 0)
(-0.0128141 0.117888 0)
(-0.0468855 0.256595 0)
(-0.0840794 0.313038 0)
(-0.106948 0.314489 0)
(-0.113822 0.284499 0)
(-0.109719 0.23894 0)
(-0.100048 0.187132 0)
(-0.0892043 0.133826 0)
(-0.0803411 0.0809268 0)
(-0.075431 0.0287217 0)
(-0.0754331 -0.0233083 0)
(-0.0804046 -0.0759373 0)
(-0.0894866 -0.129717 0)
(-0.100762 -0.184401 0)
(-0.111055 -0.238089 0)
(-0.115829 -0.285913 0)
(-0.109402 -0.318191 0)
(-0.0864167 -0.318351 0)
(-0.0483968 -0.261849 0)
(-0.0132578 -0.120512 0)
(-0.0187193 0.149115 0)
(-0.0581674 0.297214 0)
(-0.086803 0.338468 0)
(-0.0908392 0.321001 0)
(-0.075745 0.276826 0)
(-0.0512775 0.223669 0)
(-0.0249845 0.170003 0)
(-0.00186493 0.118979 0)
(0.015034 0.0709994 0)
(0.0240307 0.0251613 0)
(0.0243603 -0.02 0)
(0.015944 -0.0661228 0)
(-0.000605405 -0.11473 0)
(-0.023733 -0.166826 0)
(-0.0504584 -0.222117 0)
(-0.0757302 -0.277483 0)
(-0.0917607 -0.324241 0)
(-0.088358 -0.343987 0)
(-0.0595873 -0.303424 0)
(-0.0192317 -0.152672 0)
(-0.0262689 0.192205 0)
(-0.0674218 0.333816 0)
(-0.0730136 0.343732 0)
(-0.0444393 0.301327 0)
(0.00102856 0.244102 0)
(0.0495249 0.187757 0)
(0.0931234 0.137488 0)
(0.127785 0.0937087 0)
(0.151678 0.0550035 0)
(0.16408 0.0194022 0)
(0.164734 -0.0151912 0)
(0.153564 -0.0509068 0)
(0.130671 -0.0899039 0)
(0.0966096 -0.13428 0)
(0.0530504 -0.185633 0)
(0.00393646 -0.243736 0)
(-0.0427297 -0.303424 0)
(-0.072741 -0.348559 0)
(-0.0681312 -0.340315 0)
(-0.0266746 -0.196651 0)
(-0.0286682 0.250105 0)
(-0.0579619 0.349857 0)
(-0.0146305 0.309013 0)
(0.0622808 0.242291 0)
(0.141803 0.18054 0)
(0.211573 0.130342 0)
(0.267453 0.0910997 0)
(0.30866 0.0601108 0)
(0.335745 0.0345698 0)
(0.349471 0.0120808 0)
(0.350293 -0.00941868 0)
(0.338169 -0.031885 0)
(0.312549 -0.0574224 0)
(0.272531 -0.0885231 0)
(0.217363 -0.128166 0)
(0.147599 -0.179318 0)
(0.0671926 -0.242852 0)
(-0.0114972 -0.312145 0)
(-0.0569162 -0.355357 0)
(-0.0284567 -0.254841 0)
(0.0136402 0.288402 0)
(0.0297044 0.302273 0)
(0.152937 0.213908 0)
(0.281399 0.142476 0)
(0.381618 0.0942245 0)
(0.455942 0.0622693 0)
(0.509544 0.0408363 0)
(0.546396 0.0257986 0)
(0.569538 0.0144276 0)
(0.580967 0.00494055 0)
(0.581645 -0.00394698 0)
(0.57158 -0.0133699 0)
(0.549807 -0.0246202 0)
(0.514289 -0.0395067 0)
(0.461868 -0.0608323 0)
(0.388345 -0.0929095 0)
(0.288215 -0.141851 0)
(0.158677 -0.21482 0)
(0.033294 -0.305062 0)
(0.0153876 -0.291423 0)
(0.304632 0.147055 0)
(0.405636 0.127652 0)
(0.568646 0.0748544 0)
(0.685269 0.0419888 0)
(0.752863 0.0239894 0)
(0.794095 0.0140449 0)
(0.820523 0.00837912 0)
(0.837344 0.00494368 0)
(0.847382 0.00263694 0)
(0.852173 0.000860044 0)
(0.852386 -0.00075346 0)
(0.848041 -0.0025023 0)
(0.838509 -0.00474728 0)
(0.822293 -0.00807705 0)
(0.796583 -0.0135862 0)
(0.756162 -0.0233477 0)
(0.689391 -0.0412426 0)
(0.573078 -0.0742816 0)
(0.408903 -0.127713 0)
(0.306178 -0.147622 0)
)
;

boundaryField
{
    movingWall
    {
        type            fixedValue;
        value           uniform (1 0 0);
    }
    fixedWalls
    {
        type            noSlip;
    }
    frontAndBack
    {
        type            empty;
    }
}


// ************************************************************************* //
