/*--------------------------------*- C++ -*----------------------------------*\
  =========                 |
  \\      /  F ield         | OpenFOAM: The Open Source CFD Toolbox
   \\    /   O peration     | Website:  https://openfoam.org
    \\  /    A nd           | Version:  6
     \\/     M anipulation  |
\*---------------------------------------------------------------------------*/
FoamFile
{
    version     2.0;
    format      ascii;
    class       volScalarField;
    location    "0.06";
    object      p;
}
// * * * * * * * * * * * * * * * * * * * * * * * * * * * * * * * * * * * * * //

dimensions      [0 2 -2 0 0 0 0];

internalField   nonuniform List<scalar> 
400
(
8.60367e-06
-0.00534306
-0.011894
-0.0167719
-0.0183654
-0.0159761
-0.00956595
0.000435601
0.0132767
0.0279813
0.0434213
0.0583844
0.0716508
0.0820924
0.0888003
0.0912446
0.0894664
0.0842817
0.0774959
0.0721139
0.00532144
-0.000195059
-0.0053248
-0.00863495
-0.00935883
-0.00700552
-0.00151695
0.00679902
0.0173711
0.029435
0.0420921
0.0543704
0.0652951
0.0739764
0.0797122
0.0821104
0.0812286
0.0776515
0.072316
0.0667956
0.0122789
0.00461251
-0.000955448
-0.00399554
-0.00453684
-0.00232671
0.00262477
0.0100245
0.0193788
0.0300373
0.0412326
0.0521265
0.0618706
0.0696795
0.0749158
0.0771884
0.0764763
0.0731238
0.0672916
0.0595972
0.0184877
0.00786774
0.000914491
-0.00258343
-0.00331785
-0.00125136
0.00350393
0.0106101
0.0195827
0.0298151
0.0405961
0.0511416
0.0606402
0.0683153
0.0734956
0.0757046
0.0747942
0.0708958
0.0635459
0.0527982
0.0224195
0.00866335
4.15773e-05
-0.00412427
-0.00510271
-0.00304657
0.00182423
0.00910435
0.0182878
0.0287757
0.039874
0.0508084
0.0607559
0.0688938
0.0744607
0.0768444
0.0757413
0.0710834
0.0618687
0.0477814
0.0229378
0.00595617
-0.00442517
-0.00926634
-0.0103713
-0.00807036
-0.00269504
0.00526789
0.0152712
0.0267006
0.038853
0.0509338
0.0620719
0.0713559
0.0778859
0.080865
0.0797976
0.0744059
0.0631734
0.045512
0.0190198
-0.00130805
-0.0134478
-0.0188261
-0.0197953
-0.0168717
-0.0105092
-0.00128815
0.010191
0.0232867
0.0372741
0.0513213
0.0644859
0.0757339
0.0839801
0.0881868
0.0876091
0.081712
0.0684121
0.0468623
0.00956405
-0.0142822
-0.0280964
-0.0337214
-0.0341339
-0.0300727
-0.0221359
-0.01101
0.00264778
0.0181705
0.0348152
0.0517142
0.067847
0.0820357
0.0929667
0.0992937
0.0999375
0.0940077
0.0787068
0.0528579
-0.00676183
-0.0343469
-0.0496448
-0.0550362
-0.0542728
-0.0483872
-0.0381588
-0.0243931
-0.00779881
0.0109499
0.0311161
0.0518208
0.0719818
0.0902741
0.105121
0.114791
0.11775
0.11259
0.0955329
0.0648983
-0.0316595
-0.0632346
-0.0796437
-0.0840352
-0.0811914
-0.0725577
-0.0591473
-0.0418973
-0.0215493
0.00125366
0.0258309
0.0513464
0.0767043
0.100461
0.120763
0.135413
0.142274
0.13917
0.120914
0.0849884
-0.0673872
-0.103194
-0.119999
-0.12215
-0.115882
-0.103231
-0.0855118
-0.0637972
-0.0388229
-0.0111345
0.0187267
0.0500601
0.0818497
0.11261
0.14024
0.162024
0.175045
0.176019
0.157681
0.116055
-0.117095
-0.157248
-0.173065
-0.170927
-0.1592
-0.140759
-0.117284
-0.0899644
-0.059453
-0.0260939
0.00983485
0.0479084
0.0873423
0.126757
0.163917
0.195599
0.217951
0.226146
0.20984
0.162456
-0.185502
-0.229626
-0.241755
-0.231899
-0.211613
-0.184895
-0.153813
-0.119581
-0.0826307
-0.0429444
-0.000363536
0.0451555
0.0932805
0.142985
0.192138
0.237166
0.273233
0.293501
0.283141
0.2309
-0.280375
-0.326499
-0.329576
-0.306267
-0.272751
-0.234344
-0.193363
-0.15081
-0.106643
-0.060242
-0.0107847
0.0424841
0.0999729
0.16137
0.225079
0.287594
0.343324
0.383124
0.385951
0.332273
-0.415665
-0.4571
-0.440353
-0.39412
-0.340591
-0.286089
-0.232633
-0.18049
-0.128703
-0.0757094
-0.0197448
0.0409284
0.107793
0.181718
0.262309
0.346977
0.430207
0.500919
0.530448
0.485191
-0.617189
-0.634852
-0.577254
-0.49315
-0.4104
-0.334706
-0.266446
-0.204107
-0.145109
-0.086502
-0.0252838
0.0415165
0.116774
0.203063
0.302099
0.413662
0.534199
0.652599
0.733383
0.721576
-0.933012
-0.87764
-0.741032
-0.597681
-0.474426
-0.372569
-0.288327
-0.216593
-0.152123
-0.0900733
-0.025965
0.0445562
0.125977
0.223076
0.3408
0.48348
0.652705
0.84164
1.0158
1.09599
-1.47316
-1.20811
-0.920727
-0.691841
-0.518189
-0.388298
-0.290298
-0.212863
-0.146889
-0.0853011
-0.022174
0.0480949
0.131535
0.235385
0.368966
0.543948
0.771758
1.05957
1.40537
1.7271
-2.53124
-1.63937
-1.04669
-0.712129
-0.497373
-0.353585
-0.255459
-0.183731
-0.125445
-0.0720429
-0.0170573
0.0454151
0.121963
0.221378
0.357049
0.549677
0.827355
1.23875
1.92122
2.91483
-4.34967
-2.049
-0.975376
-0.565313
-0.360969
-0.243305
-0.172616
-0.125233
-0.0876929
-0.052467
-0.0144926
0.03067
0.0881293
0.165401
0.275874
0.444919
0.719849
1.22706
2.41502
4.83015
)
;

boundaryField
{
    movingWall
    {
        type            zeroGradient;
    }
    fixedWalls
    {
        type            zeroGradient;
    }
    frontAndBack
    {
        type            empty;
    }
}


// ************************************************************************* //
