/*--------------------------------*- C++ -*----------------------------------*\
  =========                 |
  \\      /  F ield         | OpenFOAM: The Open Source CFD Toolbox
   \\    /   O peration     | Website:  https://openfoam.org
    \\  /    A nd           | Version:  6
     \\/     M anipulation  |
\*---------------------------------------------------------------------------*/
FoamFile
{
    version     2.0;
    format      ascii;
    class       surfaceScalarField;
    location    "0.06";
    object      phi;
}
// * * * * * * * * * * * * * * * * * * * * * * * * * * * * * * * * * * * * * //

dimensions      [0 3 -1 0 0 0 0];

internalField   nonuniform List<scalar> 
760
(
1.27769e-08
-1.28178e-08
-2.18763e-08
3.46535e-08
-1.08145e-07
8.62689e-08
-2.30411e-07
1.22267e-07
-3.70264e-07
1.39853e-07
-5.10417e-07
1.40153e-07
-6.36081e-07
1.25664e-07
-7.35468e-07
9.93868e-08
-7.9987e-07
6.44024e-08
-8.23667e-07
2.37972e-08
-8.04421e-07
-1.92458e-08
-7.43097e-07
-6.13245e-08
-6.44354e-07
-9.87431e-08
-5.16808e-07
-1.27545e-07
-3.73103e-07
-1.43706e-07
-2.29548e-07
-1.43555e-07
-1.05019e-07
-1.24529e-07
-1.87937e-08
-8.62252e-08
1.4103e-08
-3.28968e-08
1.41029e-08
-3.24487e-08
1.96304e-08
-1.69181e-07
1.71386e-07
-4.05353e-07
3.22439e-07
-7.12234e-07
4.29148e-07
-1.05306e-06
4.8068e-07
-1.3908e-06
4.77891e-07
-1.69221e-06
4.27078e-07
-1.92994e-06
3.37113e-07
-2.08343e-06
2.17893e-07
-2.13945e-06
7.98212e-08
-2.09251e-06
-6.6188e-08
-1.94531e-06
-2.08525e-07
-1.70924e-06
-3.34815e-07
-1.4046e-06
-4.32183e-07
-1.06028e-06
-4.8803e-07
-7.12271e-07
-4.91561e-07
-4.00572e-07
-4.36228e-07
-1.63696e-07
-3.23101e-07
-2.97096e-08
-1.66883e-07
-1.56068e-08
-8.619e-08
1.0582e-07
-3.32956e-07
4.18153e-07
-7.12191e-07
7.01674e-07
-1.18032e-06
8.97275e-07
-1.68694e-06
9.87298e-07
-2.18193e-06
9.72887e-07
-2.62015e-06
8.65298e-07
-2.96415e-06
6.81108e-07
-3.18566e-06
4.3941e-07
-3.26648e-06
1.6064e-07
-3.19906e-06
-1.33611e-07
-2.98716e-06
-4.20425e-07
-2.64642e-06
-6.75558e-07
-2.20456e-06
-8.74041e-07
-1.70081e-06
-9.91774e-07
-1.18392e-06
-1.00846e-06
-7.08059e-07
-9.12084e-07
-3.26462e-07
-7.04698e-07
-8.25089e-08
-4.10837e-07
-9.81158e-08
-1.35436e-07
2.41256e-07
-4.90361e-07
7.73079e-07
-1.00925e-06
1.22057e-06
-1.62985e-06
1.51787e-06
-2.28781e-06
1.64526e-06
-2.92206e-06
1.60714e-06
-3.47871e-06
1.42195e-06
-3.91352e-06
1.11592e-06
-4.19322e-06
7.19118e-07
-4.29633e-06
2.63746e-07
-4.21373e-06
-2.16211e-07
-3.94942e-06
-6.84736e-07
-3.52123e-06
-1.10375e-06
-2.96131e-06
-1.43396e-06
-2.31578e-06
-1.6373e-06
-1.643e-06
-1.68124e-06
-1.00965e-06
-1.54543e-06
-4.8463e-07
-1.22972e-06
-1.31173e-07
-7.64294e-07
-2.29289e-07
-1.8127e-07
4.22526e-07
-6.42298e-07
1.23411e-06
-1.2997e-06
1.87797e-06
-2.07008e-06
2.28825e-06
-2.87396e-06
2.44914e-06
-3.63974e-06
2.37292e-06
-4.30641e-06
2.08861e-06
-4.82494e-06
1.63445e-06
-5.1589e-06
1.05307e-06
-5.28464e-06
3.89486e-07
-5.19167e-06
-3.0918e-07
-4.88335e-06
-9.93051e-07
-4.37796e-06
-1.60914e-06
-3.70974e-06
-2.10218e-06
-2.92951e-06
-2.41754e-06
-2.1038e-06
-2.50695e-06
-1.31202e-06
-2.33721e-06
-6.4096e-07
-1.90078e-06
-1.77321e-07
-1.22793e-06
-4.0661e-07
-2.26443e-07
6.48968e-07
-7.94398e-07
1.80206e-06
-1.59197e-06
2.67554e-06
-2.51272e-06
3.209e-06
-3.46089e-06
3.39731e-06
-4.35451e-06
3.26654e-06
-5.1266e-06
2.8607e-06
-5.72505e-06
2.2329e-06
-6.11179e-06
1.43982e-06
-6.26202e-06
5.39713e-07
-6.16393e-06
-4.07274e-07
-5.81933e-06
-1.33765e-06
-5.24516e-06
-2.18331e-06
-4.47555e-06
-2.87179e-06
-3.5639e-06
-3.32919e-06
-2.58385e-06
-3.487e-06
-1.62805e-06
-3.29301e-06
-8.03708e-07
-2.72512e-06
-2.24581e-07
-1.80706e-06
-6.3119e-07
-2.73587e-07
9.22555e-07
-9.52667e-07
2.48114e-06
-1.89437e-06
3.61725e-06
-2.96702e-06
4.28165e-06
-4.05767e-06
4.48796e-06
-5.07453e-06
4.2834e-06
-5.94632e-06
3.73249e-06
-6.6199e-06
2.90648e-06
-7.05747e-06
1.87739e-06
-7.23425e-06
7.16498e-07
-7.13733e-06
-5.04195e-07
-6.76601e-06
-1.70897e-06
-6.13385e-06
-2.81547e-06
-5.27213e-06
-3.73351e-06
-4.23404e-06
-4.36729e-06
-3.09839e-06
-4.62265e-06
-1.97103e-06
-4.42036e-06
-9.81984e-07
-3.71417e-06
-2.76682e-07
-2.51236e-06
-9.07872e-07
-3.25008e-07
1.24756e-06
-1.1223e-06
3.27843e-06
-2.213e-06
4.70795e-06
-3.43718e-06
5.50583e-06
-4.6642e-06
5.71498e-06
-5.79402e-06
5.41322e-06
-6.75382e-06
4.69229e-06
-7.49256e-06
3.64522e-06
-7.97545e-06
2.36029e-06
-8.17959e-06
9.20639e-07
-8.09148e-06
-5.92311e-07
-7.70695e-06
-2.0935e-06
-7.03374e-06
-3.48868e-06
-6.09656e-06
-4.67069e-06
-4.94413e-06
-5.51972e-06
-3.65676e-06
-5.91002e-06
-2.3519e-06
-5.72523e-06
-1.18432e-06
-4.88175e-06
-3.37196e-07
-3.35948e-06
-1.24507e-06
-3.82847e-07
1.63041e-06
-1.3076e-06
4.20318e-06
-2.55102e-06
5.95137e-06
-3.92084e-06
6.87566e-06
-5.26899e-06
7.06312e-06
-6.4904e-06
6.63463e-06
-7.51533e-06
5.71722e-06
-8.29959e-06
4.42948e-06
-8.81544e-06
2.87614e-06
-9.04459e-06
1.14979e-06
-8.97407e-06
-6.62829e-07
-8.59548e-06
-2.47209e-06
-7.90783e-06
-4.17632e-06
-6.9244e-06
-5.65412e-06
-5.68309e-06
-6.76102e-06
-4.25924e-06
-7.33387e-06
-2.77756e-06
-7.2069e-06
-1.41819e-06
-6.24112e-06
-4.09649e-07
-4.36802e-06
-1.65472e-06
-4.49683e-07
2.08009e-06
-1.51277e-06
5.26627e-06
-2.90873e-06
7.34733e-06
-4.40788e-06
8.37481e-06
-5.84658e-06
8.50183e-06
-7.12067e-06
7.90871e-06
-8.17071e-06
6.76726e-06
-8.96622e-06
5.22499e-06
-9.49205e-06
3.40197e-06
-9.73837e-06
1.39611e-06
-9.69466e-06
-7.06546e-07
-9.34787e-06
-2.81888e-06
-8.68533e-06
-4.83886e-06
-7.70285e-06
-6.63659e-06
-6.41878e-06
-8.04509e-06
-4.89321e-06
-8.85945e-06
-3.24937e-06
-8.85074e-06
-1.69019e-06
-7.80029e-06
-4.98015e-07
-5.5602e-06
-2.15273e-06
-5.29619e-07
2.60971e-06
-1.74338e-06
6.48002e-06
-3.28383e-06
8.88778e-06
-4.87857e-06
9.96955e-06
-6.35378e-06
9.97704e-06
-7.61629e-06
9.17122e-06
-8.62768e-06
7.77865e-06
-9.38034e-06
5.97765e-06
-9.87871e-06
3.90034e-06
-1.01262e-05
1.64362e-06
-1.01175e-05
-7.15274e-07
-9.83529e-06
-3.10108e-06
-9.2527e-06
-5.42145e-06
-8.34168e-06
-7.54761e-06
-7.08999e-06
-9.29679e-06
-5.52755e-06
-1.04219e-05
-3.76069e-06
-1.06176e-05
-2.00623e-06
-9.55475e-06
-6.07593e-07
-6.95884e-06
-2.76033e-06
-6.30136e-07
3.23985e-06
-2.00817e-06
7.85806e-06
-3.67059e-06
1.05502e-05
-5.29933e-06
1.15983e-05
-6.7227e-06
1.14004e-05
-7.87506e-06
1.03236e-05
-8.75383e-06
8.65741e-06
-9.38537e-06
6.6092e-06
-9.80132e-06
4.31629e-06
-1.00234e-05
1.86574e-06
-1.00548e-05
-6.83937e-07
-9.87549e-06
-3.28036e-06
-9.44344e-06
-5.85351e-06
-8.70139e-06
-8.28966e-06
-7.59464e-06
-1.04035e-05
-6.10336e-06
-1.19132e-05
-4.29222e-06
-1.24287e-05
-2.37143e-06
-1.14755e-05
-7.46481e-07
-8.58379e-06
-3.50681e-06
-7.65121e-07
4.00497e-06
-2.32046e-06
9.41339e-06
-4.05533e-06
1.22851e-05
-5.61234e-06
1.31553e-05
-6.84729e-06
1.26354e-05
-7.74761e-06
1.12239e-05
-8.36523e-06
9.27503e-06
-8.77188e-06
7.01584e-06
-9.03259e-06
4.577e-06
-9.19117e-06
2.02432e-06
-9.26211e-06
-6.12994e-07
-9.22598e-06
-3.3165e-06
-9.02747e-06
-6.05201e-06
-8.57862e-06
-8.73851e-06
-7.77268e-06
-1.12095e-05
-6.51803e-06
-1.31678e-05
-4.80198e-06
-1.41448e-05
-2.78824e-06
-1.34893e-05
-9.27886e-07
-1.04441e-05
-4.43469e-06
-9.59311e-07
4.96428e-06
-2.69579e-06
1.11499e-05
-4.40157e-06
1.39909e-05
-5.71169e-06
1.44654e-05
-6.55728e-06
1.3481e-05
-7.01478e-06
1.16814e-05
-7.21033e-06
9.47058e-06
-7.26848e-06
7.07399e-06
-7.28878e-06
4.59731e-06
-7.33664e-06
2.07218e-06
-7.43924e-06
-5.10397e-07
-7.58179e-06
-3.17395e-06
-7.70262e-06
-5.93119e-06
-7.6891e-06
-8.75203e-06
-7.38137e-06
-1.15172e-05
-6.59774e-06
-1.39514e-05
-5.20384e-06
-1.55387e-05
-3.24869e-06
-1.54444e-05
-1.17299e-06
-1.25198e-05
-5.60768e-06
-1.25193e-06
6.21621e-06
-3.13539e-06
1.30333e-05
-4.60944e-06
1.54649e-05
-5.39204e-06
1.5248e-05
-5.57031e-06
1.36592e-05
-5.35167e-06
1.14628e-05
-4.94843e-06
9.06734e-06
-4.53367e-06
6.65923e-06
-4.23181e-06
4.29545e-06
-4.12171e-06
1.96207e-06
-4.24046e-06
-3.91647e-07
-4.58258e-06
-2.83182e-06
-5.09249e-06
-5.42128e-06
-5.65096e-06
-8.19356e-06
-6.06113e-06
-1.1107e-05
-6.05036e-06
-1.39622e-05
-5.32161e-06
-1.62674e-05
-3.70889e-06
-1.70571e-05
-1.51041e-06
-1.47183e-05
-7.11809e-06
-1.68531e-06
7.90152e-06
-3.56208e-06
1.49101e-05
-4.41461e-06
1.63174e-05
-4.24626e-06
1.50797e-05
-3.41188e-06
1.28248e-05
-2.27741e-06
1.03283e-05
-1.12698e-06
7.91692e-06
-1.54475e-07
5.68672e-06
5.17252e-07
3.62373e-06
8.14654e-07
1.66467e-06
6.99282e-07
-2.76275e-07
1.64014e-07
-2.29656e-06
-7.587e-07
-4.49856e-06
-1.97486e-06
-6.9774e-06
-3.29349e-06
-9.7884e-06
-4.38833e-06
-1.28674e-05
-4.79304e-06
-1.58627e-05
-4.01312e-06
-1.78371e-05
-1.95448e-06
-1.6777e-05
-9.07257e-06
-2.23325e-06
1.01348e-05
-3.6269e-06
1.63038e-05
-3.1612e-06
1.58517e-05
-1.48171e-06
1.34002e-05
6.99766e-07
1.06434e-05
2.89833e-06
8.12974e-06
4.82774e-06
5.98751e-06
6.33517e-06
4.17929e-06
7.34371e-06
2.61519e-06
7.81289e-06
1.19549e-06
7.71673e-06
-1.80115e-07
7.03577e-06
-1.6156e-06
5.7628e-06
-3.22559e-06
3.92632e-06
-5.14091e-06
1.64016e-06
-7.50225e-06
-8.14201e-07
-1.0413e-05
-2.88583e-06
-1.37911e-05
-3.70349e-06
-1.70194e-05
-2.41469e-06
-1.80658e-05
-1.14873e-05
-2.55236e-06
1.26871e-05
-2.20515e-06
1.59565e-05
6.58682e-07
1.29879e-05
4.36599e-06
9.69285e-06
7.97881e-06
7.03054e-06
1.10947e-05
5.01386e-06
1.35739e-05
3.50827e-06
1.53937e-05
2.35946e-06
1.65711e-05
1.43788e-06
1.71233e-05
6.43288e-07
1.70497e-05
-1.06606e-07
1.63242e-05
-8.9001e-07
1.48943e-05
-1.79574e-06
1.26942e-05
-2.94076e-06
9.68206e-06
-4.49015e-06
5.93378e-06
-6.66474e-06
1.83321e-06
-9.69053e-06
-1.59289e-06
-1.35933e-05
-2.43942e-06
-1.72192e-05
-1.39267e-05
-8.44161e-07
1.35313e-05
4.05675e-06
1.10556e-05
1.02648e-05
6.77985e-06
1.57324e-05
4.22532e-06
2.00607e-05
2.70223e-06
2.33224e-05
1.75216e-06
2.56893e-05
1.14134e-06
2.7321e-05
7.27816e-07
2.83342e-05
4.24679e-07
2.87987e-05
1.78714e-07
2.87385e-05
-4.63529e-08
2.81301e-05
-2.81604e-07
2.68974e-05
-5.63033e-07
2.49013e-05
-9.44728e-07
2.1932e-05
-1.52086e-06
1.77299e-05
-2.46259e-06
1.21172e-05
-4.07783e-06
5.4366e-06
-6.91271e-06
-2.00362e-07
-1.15823e-05
-1.4127e-05
1.35313e-05
2.45869e-05
3.13668e-05
3.55921e-05
3.82943e-05
4.00465e-05
4.11878e-05
4.19156e-05
4.23403e-05
4.2519e-05
4.24727e-05
4.21911e-05
4.1628e-05
4.06833e-05
3.91624e-05
3.66999e-05
3.2622e-05
2.57093e-05
1.4127e-05
)
;

boundaryField
{
    movingWall
    {
        type            calculated;
        value           uniform 0;
    }
    fixedWalls
    {
        type            calculated;
        value           uniform 0;
    }
    frontAndBack
    {
        type            empty;
        value           nonuniform 0();
    }
}


// ************************************************************************* //
