/*--------------------------------*- C++ -*----------------------------------*\
  =========                 |
  \\      /  F ield         | OpenFOAM: The Open Source CFD Toolbox
   \\    /   O peration     | Website:  https://openfoam.org
    \\  /    A nd           | Version:  6
     \\/     M anipulation  |
\*---------------------------------------------------------------------------*/
FoamFile
{
    version     2.0;
    format      ascii;
    class       volVectorField;
    location    "0.06";
    object      U;
}
// * * * * * * * * * * * * * * * * * * * * * * * * * * * * * * * * * * * * * //

dimensions      [0 1 -1 0 0 0 0];

internalField   nonuniform List<vector> 
400
(
(0.00022666 -0.000223965 0)
(0.000109004 0.00011777 0)
(-0.00112739 0.000538739 0)
(-0.00327878 0.000833739 0)
(-0.0059725 0.000979828 0)
(-0.00883994 0.00099176 0)
(-0.0115553 0.000892964 0)
(-0.0138504 0.000708247 0)
(-0.0155196 0.000460978 0)
(-0.0164189 0.000173255 0)
(-0.0164672 -0.000132675 0)
(-0.0156487 -0.000432905 0)
(-0.0140188 -0.000700828 0)
(-0.0117099 -0.00090694 0)
(-0.00893592 -0.00101983 0)
(-0.0059902 -0.00100898 0)
(-0.0032324 -0.000850461 0)
(-0.00105843 -0.00053585 0)
(0.000156691 -0.000100895 0)
(0.000240666 0.000235546 0)
(-8.49862e-05 -0.000136792 0)
(-0.00152741 0.00156043 0)
(-0.00532922 0.00338838 0)
(-0.0109327 0.00469225 0)
(-0.0175873 0.00533583 0)
(-0.0245388 0.00534024 0)
(-0.0310739 0.00478816 0)
(-0.0365789 0.00378756 0)
(-0.040571 0.00245388 0)
(-0.0427102 0.000905398 0)
(-0.0428073 -0.000734925 0)
(-0.0408323 -0.002336 0)
(-0.0369246 -0.00375667 0)
(-0.0314012 -0.00484781 0)
(-0.0247584 -0.0054605 0)
(-0.0176562 -0.00546315 0)
(-0.010871 -0.0047707 0)
(-0.00521025 -0.00338709 0)
(-0.00143575 -0.00149801 0)
(-5.54093e-05 0.000187343 0)
(-0.000502687 0.00104148 0)
(-0.00347338 0.00537055 0)
(-0.00987167 0.00952784 0)
(-0.0186142 0.0124568 0)
(-0.0286143 0.0138551 0)
(-0.0388625 0.0137325 0)
(-0.0483965 0.0122548 0)
(-0.0563787 0.00966591 0)
(-0.0621466 0.00624422 0)
(-0.0652321 0.00228577 0)
(-0.0653749 -0.00189725 0)
(-0.0625345 -0.00597314 0)
(-0.0569028 -0.00959003 0)
(-0.048914 -0.0123843 0)
(-0.0392438 -0.0140037 0)
(-0.0287873 -0.0141511 0)
(-0.0185907 -0.0126526 0)
(-0.00974163 -0.00954925 0)
(-0.0033554 -0.00524735 0)
(-0.000461084 -0.000925378 0)
(-0.000873903 0.00326756 0)
(-0.0053201 0.0114121 0)
(-0.0142812 0.0185543 0)
(-0.0260458 0.023417 0)
(-0.0391504 0.0255995 0)
(-0.0523549 0.0251373 0)
(-0.0645063 0.0223133 0)
(-0.0746118 0.0175442 0)
(-0.081891 0.0113132 0)
(-0.0857936 0.00413934 0)
(-0.0860107 -0.00342797 0)
(-0.0824879 -0.010806 0)
(-0.0754404 -0.0173795 0)
(-0.065367 -0.0225157 0)
(-0.0530556 -0.0256055 0)
(-0.0395664 -0.0261365 0)
(-0.0261617 -0.0238033 0)
(-0.0141955 -0.0186459 0)
(-0.00519311 -0.0112354 0)
(-0.000821446 -0.00306822 0)
(-0.00120602 0.00643938 0)
(-0.00707335 0.0195761 0)
(-0.0185763 0.0303214 0)
(-0.0333327 0.0373381 0)
(-0.049461 0.0402409 0)
(-0.0654837 0.0391705 0)
(-0.0800808 0.0345822 0)
(-0.092144 0.0271074 0)
(-0.100816 0.0174654 0)
(-0.105496 0.00642412 0)
(-0.105841 -0.0052072 0)
(-0.101775 -0.0165714 0)
(-0.0935083 -0.0267614 0)
(-0.0815626 -0.0348393 0)
(-0.066789 -0.0398912 0)
(-0.0503723 -0.0411293 0)
(-0.0337753 -0.0380439 0)
(-0.0186428 -0.0305878 0)
(-0.00697595 -0.0193934 0)
(-0.0011477 -0.00615148 0)
(-0.00152706 0.0105127 0)
(-0.00881592 0.029854 0)
(-0.0228939 0.0448575 0)
(-0.0406724 0.0542427 0)
(-0.0598159 0.0577667 0)
(-0.0785991 0.0557806 0)
(-0.0955509 0.0489908 0)
(-0.109479 0.0382948 0)
(-0.119485 0.0246789 0)
(-0.124943 0.00917423 0)
(-0.125488 -0.00714384 0)
(-0.121015 -0.0231384 0)
(-0.111702 -0.0375979 0)
(-0.0980485 -0.04925 0)
(-0.0809238 -0.0568235 0)
(-0.0616012 -0.059175 0)
(-0.0417354 -0.0554849 0)
(-0.0232922 -0.0454963 0)
(-0.00881952 -0.0297834 0)
(-0.00147498 -0.0101565 0)
(-0.00186337 0.0155011 0)
(-0.0106359 0.0423005 0)
(-0.0273819 0.0622312 0)
(-0.0482461 0.0741746 0)
(-0.0704024 0.0781733 0)
(-0.0918758 0.0749197 0)
(-0.111069 0.0654697 0)
(-0.126746 0.0510491 0)
(-0.13801 0.0329389 0)
(-0.144244 0.012437 0)
(-0.145074 -0.009127 0)
(-0.14036 -0.0303515 0)
(-0.130216 -0.0497251 0)
(-0.115071 -0.065622 0)
(-0.09575 -0.0763581 0)
(-0.073565 -0.0803353 0)
(-0.0503371 -0.076283 0)
(-0.0283742 -0.0635714 0)
(-0.0108524 -0.0425691 0)
(-0.00183899 -0.0151424 0)
(-0.00223823 0.0214678 0)
(-0.0126127 0.0570315 0)
(-0.0321643 0.0825384 0)
(-0.0561698 0.0971591 0)
(-0.0812713 0.1014 0)
(-0.105259 0.0964609 0)
(-0.126459 0.0838665 0)
(-0.143653 0.0652411 0)
(-0.156008 0.0421843 0)
(-0.162964 0.0162481 0)
(-0.164166 -0.0110183 0)
(-0.15943 -0.037989 0)
(-0.148775 -0.0628827 0)
(-0.132493 -0.0837191 0)
(-0.111285 -0.0983505 0)
(-0.0864127 -0.104609 0)
(-0.0598022 -0.100592 0)
(-0.034099 -0.0850764 0)
(-0.0132002 -0.0580175 0)
(-0.00227454 -0.0212424 0)
(-0.00267489 0.0285199 0)
(-0.0148205 0.0742142 0)
(-0.0373347 0.105877 0)
(-0.0644716 0.123153 0)
(-0.0922976 0.12726 0)
(-0.118413 0.120114 0)
(-0.141152 0.103861 0)
(-0.159416 0.0805964 0)
(-0.172525 0.0522523 0)
(-0.180047 0.0206008 0)
(-0.181682 -0.0126525 0)
(-0.177213 -0.0457324 0)
(-0.166523 -0.0766527 0)
(-0.149692 -0.103109 0)
(-0.127176 -0.122458 0)
(-0.100052 -0.131838 0)
(-0.0702295 -0.128494 0)
(-0.040637 -0.110301 0)
(-0.0159858 -0.0764882 0)
(-0.00281876 -0.0286606 0)
(-0.00320421 0.0368095 0)
(-0.0173457 0.0940537 0)
(-0.0429684 0.132297 0)
(-0.073082 0.151963 0)
(-0.103143 0.155327 0)
(-0.130657 0.145311 0)
(-0.154111 0.124854 0)
(-0.172671 0.0966001 0)
(-0.185937 0.0628072 0)
(-0.193702 0.0254044 0)
(-0.195781 -0.013846 0)
(-0.191937 -0.0531368 0)
(-0.181888 -0.0903897 0)
(-0.16541 -0.123057 0)
(-0.142567 -0.148005 0)
(-0.114051 -0.161571 0)
(-0.0815418 -0.159878 0)
(-0.0481088 -0.139486 0)
(-0.0193416 -0.0984097 0)
(-0.00351872 -0.0376745 0)
(-0.00387873 0.0465518 0)
(-0.0203189 0.116786 0)
(-0.0491444 0.161743 0)
(-0.0818192 0.183126 0)
(-0.113196 0.1848 0)
(-0.140873 0.171059 0)
(-0.163712 0.145839 0)
(-0.181349 0.112392 0)
(-0.19383 0.0732615 0)
(-0.201284 0.0304327 0)
(-0.203721 -0.0144176 0)
(-0.200916 -0.059615 0)
(-0.192403 -0.10316 0)
(-0.177574 -0.142409 0)
(-0.155924 -0.173822 0)
(-0.127493 -0.192868 0)
(-0.0934038 -0.194269 0)
(-0.0565697 -0.172714 0)
(-0.0234309 -0.124249 0)
(-0.00444511 -0.0486527 0)
(-0.00479814 0.0580729 0)
(-0.0239646 0.142679 0)
(-0.0559635 0.19395 0)
(-0.0903371 0.215751 0)
(-0.121456 0.214311 0)
(-0.147346 0.195774 0)
(-0.167582 0.165267 0)
(-0.18253 0.126663 0)
(-0.192863 0.0827017 0)
(-0.199172 0.0352699 0)
(-0.201739 -0.0142232 0)
(-0.200403 -0.0644445 0)
(-0.19453 -0.113704 0)
(-0.183068 -0.1595 0)
(-0.164786 -0.198071 0)
(-0.138758 -0.224071 0)
(-0.105075 -0.230575 0)
(-0.0659677 -0.209723 0)
(-0.0284785 -0.154464 0)
(-0.00571657 -0.0620958 0)
(-0.0061546 0.0719095 0)
(-0.0286687 0.172029 0)
(-0.0635238 0.228277 0)
(-0.0979672 0.248255 0)
(-0.126276 0.241682 0)
(-0.147486 0.217088 0)
(-0.162343 0.180922 0)
(-0.172239 0.13759 0)
(-0.178637 0.0898429 0)
(-0.182677 0.0392697 0)
(-0.184973 -0.0132019 0)
(-0.185491 -0.0668125 0)
(-0.183484 -0.120455 0)
(-0.177482 -0.172091 0)
(-0.165439 -0.218082 0)
(-0.145166 -0.252509 0)
(-0.115128 -0.266727 0)
(-0.0760238 -0.249613 0)
(-0.0348026 -0.189411 0)
(-0.00754141 -0.0787207 0)
(-0.00830645 0.088987 0)
(-0.0350406 0.205084 0)
(-0.0717496 0.263365 0)
(-0.103302 0.277962 0)
(-0.124833 0.263606 0)
(-0.137313 0.231679 0)
(-0.143215 0.189873 0)
(-0.1452 0.142846 0)
(-0.145577 0.0930632 0)
(-0.146025 0.0415607 0)
(-0.147487 -0.0114231 0)
(-0.150108 -0.065912 0)
(-0.153144 -0.121649 0)
(-0.154861 -0.177438 0)
(-0.152485 -0.230271 0)
(-0.142421 -0.274209 0)
(-0.120917 -0.299189 0)
(-0.0859213 -0.290327 0)
(-0.0428056 -0.229116 0)
(-0.0102787 -0.0995978 0)
(-0.0118576 0.110875 0)
(-0.0438361 0.241749 0)
(-0.0797862 0.296468 0)
(-0.103205 0.30051 0)
(-0.112082 0.275336 0)
(-0.110604 0.235238 0)
(-0.103446 0.188626 0)
(-0.0945506 0.139831 0)
(-0.0868935 0.0905978 0)
(-0.0824891 0.0411485 0)
(-0.0824877 -0.00911534 0)
(-0.0872233 -0.0611103 0)
(-0.0961344 -0.115601 0)
(-0.107541 -0.172583 0)
(-0.118336 -0.23031 0)
(-0.123765 -0.283746 0)
(-0.117557 -0.322379 0)
(-0.093516 -0.327807 0)
(-0.0527395 -0.272725 0)
(-0.0144715 -0.126305 0)
(-0.017554 0.140176 0)
(-0.0552211 0.280702 0)
(-0.0842157 0.322176 0)
(-0.0906274 0.309056 0)
(-0.0788668 0.270548 0)
(-0.0575846 0.222796 0)
(-0.0336059 0.173663 0)
(-0.0116344 0.126222 0)
(0.00527136 0.0809866 0)
(0.0152313 0.037175 0)
(0.0171693 -0.00664051 0)
(0.0106223 -0.0521821 0)
(-0.00422277 -0.101192 0)
(-0.0262326 -0.155014 0)
(-0.0527484 -0.213744 0)
(-0.0787693 -0.274483 0)
(-0.0960696 -0.328157 0)
(-0.0934344 -0.354696 0)
(-0.0636545 -0.317324 0)
(-0.0205966 -0.161146 0)
(-0.0252563 0.181384 0)
(-0.0659227 0.317117 0)
(-0.0744988 0.329837 0)
(-0.0502722 0.293138 0)
(-0.00891476 0.24154 0)
(0.0366691 0.189625 0)
(0.0789452 0.142515 0)
(0.113837 0.100929 0)
(0.139268 0.0637837 0)
(0.154201 0.0293415 0)
(0.158043 -0.00438663 0)
(0.150346 -0.0395584 0)
(0.130786 -0.0785094 0)
(0.0994167 -0.123684 0)
(0.0573652 -0.177202 0)
(0.00814162 -0.239433 0)
(-0.0402824 -0.30548 0)
(-0.0729954 -0.358258 0)
(-0.0701953 -0.355484 0)
(-0.0276775 -0.207689 0)
(-0.0289911 0.238675 0)
(-0.0603943 0.335852 0)
(-0.0227624 0.299881 0)
(0.0489057 0.2389 0)
(0.125017 0.181425 0)
(0.193394 0.133796 0)
(0.249686 0.0959294 0)
(0.292702 0.0656679 0)
(0.322606 0.0405763 0)
(0.339866 0.0184689 0)
(0.344714 -0.00262157 0)
(0.336899 -0.024646 0)
(0.315615 -0.049797 0)
(0.279575 -0.0807897 0)
(0.227462 -0.121042 0)
(0.159106 -0.174252 0)
(0.0777962 -0.242166 0)
(-0.004341 -0.318292 0)
(-0.0542485 -0.368343 0)
(-0.0277255 -0.266785 0)
(0.00962477 0.280923 0)
(0.021191 0.294761 0)
(0.138513 0.21067 0)
(0.263439 0.142989 0)
(0.362804 0.0966099 0)
(0.438042 0.0651889 0)
(0.49365 0.0437022 0)
(0.533113 0.0284633 0)
(0.55919 0.0169327 0)
(0.573772 0.00739812 0)
(0.577808 -0.00140045 0)
(0.571319 -0.0105891 0)
(0.553334 -0.0214619 0)
(0.521723 -0.0358625 0)
(0.473036 -0.0567411 0)
(0.40249 -0.0888535 0)
(0.303664 -0.13923 0)
(0.172443 -0.215938 0)
(0.0425173 -0.31116 0)
(0.0200933 -0.298827 0)
(0.301004 0.145503 0)
(0.397828 0.127074 0)
(0.557512 0.0758886 0)
(0.674292 0.0436072 0)
(0.743441 0.0254867 0)
(0.786347 0.0151725 0)
(0.814329 0.00915597 0)
(0.832511 0.00547038 0)
(0.843738 0.00301062 0)
(0.849621 0.00115775 0)
(0.850918 -0.00046772 0)
(0.847734 -0.00216413 0)
(0.839533 -0.00427535 0)
(0.824919 -0.00735496 0)
(0.801145 -0.0124582 0)
(0.762988 -0.0216845 0)
(0.698689 -0.0391528 0)
(0.583794 -0.072407 0)
(0.417295 -0.12732 0)
(0.310277 -0.148811 0)
)
;

boundaryField
{
    movingWall
    {
        type            fixedValue;
        value           uniform (1 0 0);
    }
    fixedWalls
    {
        type            noSlip;
    }
    frontAndBack
    {
        type            empty;
    }
}


// ************************************************************************* //
