/*--------------------------------*- C++ -*----------------------------------*\
  =========                 |
  \\      /  F ield         | OpenFOAM: The Open Source CFD Toolbox
   \\    /   O peration     | Website:  https://openfoam.org
    \\  /    A nd           | Version:  6
     \\/     M anipulation  |
\*---------------------------------------------------------------------------*/
FoamFile
{
    version     2.0;
    format      ascii;
    class       volVectorField;
    location    "0.07";
    object      U;
}
// * * * * * * * * * * * * * * * * * * * * * * * * * * * * * * * * * * * * * //

dimensions      [0 1 -1 0 0 0 0];

internalField   nonuniform List<vector> 
400
(
(-4.7684e-05 4.61023e-05 0)
(-0.000635177 0.000393644 0)
(-0.00194798 0.000582138 0)
(-0.00352455 0.000624319 0)
(-0.00508329 0.000594026 0)
(-0.00650884 0.000530686 0)
(-0.0077432 0.000448869 0)
(-0.0087464 0.000353121 0)
(-0.00948573 0.000244982 0)
(-0.00993272 0.000125681 0)
(-0.0100634 -2.96099e-06 0)
(-0.00985978 -0.000138243 0)
(-0.00931219 -0.000276394 0)
(-0.00842187 -0.000412261 0)
(-0.00720531 -0.000538378 0)
(-0.00570182 -0.000642351 0)
(-0.00398817 -0.000700395 0)
(-0.00221958 -0.000664048 0)
(-0.000736313 -0.000454123 0)
(-6.23906e-05 -6.33206e-05 0)
(-0.000399928 0.000631606 0)
(-0.00207099 0.00203814 0)
(-0.00500333 0.00277161 0)
(-0.00836852 0.00294131 0)
(-0.0116747 0.00279979 0)
(-0.0146982 0.00249715 0)
(-0.0173081 0.00209897 0)
(-0.0194123 0.00163128 0)
(-0.0209402 0.00110621 0)
(-0.0218351 0.000533032 0)
(-0.0220532 -7.75614e-05 0)
(-0.0215649 -0.000711766 0)
(-0.0203583 -0.00135139 0)
(-0.0184453 -0.001972 0)
(-0.0158695 -0.00253858 0)
(-0.0127217 -0.00299479 0)
(-0.0091635 -0.00323986 0)
(-0.00548281 -0.00309062 0)
(-0.00226447 -0.00227771 0)
(-0.000435218 -0.000712334 0)
(-0.000623903 0.00198799 0)
(-0.00298566 0.00502214 0)
(-0.00691054 0.00652422 0)
(-0.0113083 0.00685888 0)
(-0.0155874 0.00651637 0)
(-0.0194857 0.0058011 0)
(-0.0228414 0.00485803 0)
(-0.0255379 0.00375116 0)
(-0.0274871 0.0025136 0)
(-0.0286194 0.00117063 0)
(-0.0288818 -0.000250984 0)
(-0.028239 -0.00171859 0)
(-0.0266776 -0.00319022 0)
(-0.0242127 -0.00460984 0)
(-0.0208989 -0.00589746 0)
(-0.0168498 -0.00692676 0)
(-0.0122633 -0.00748032 0)
(-0.00748014 -0.00718654 0)
(-0.00320851 -0.00552302 0)
(-0.000661586 -0.00216675 0)
(-0.000739847 0.00375069 0)
(-0.00352282 0.00874463 0)
(-0.00810201 0.0111016 0)
(-0.0131776 0.0115832 0)
(-0.0180815 0.0109732 0)
(-0.0225333 0.00975131 0)
(-0.0263598 0.00815081 0)
(-0.0294353 0.00627847 0)
(-0.0316644 0.00419159 0)
(-0.0329713 0.00193363 0)
(-0.0332964 -0.000450895 0)
(-0.0325969 -0.00290891 0)
(-0.0308518 -0.00537237 0)
(-0.0280687 -0.00774962 0)
(-0.0242992 -0.00990876 0)
(-0.0196613 -0.0116421 0)
(-0.0143699 -0.0125972 0)
(-0.00880516 -0.0121823 0)
(-0.00378806 -0.00955951 0)
(-0.000780327 -0.00403688 0)
(-0.000821982 0.00573944 0)
(-0.00393709 0.0129412 0)
(-0.00906355 0.0162249 0)
(-0.0147188 0.0168373 0)
(-0.0201591 0.0159099 0)
(-0.0250867 0.0141194 0)
(-0.0293224 0.011794 0)
(-0.0327374 0.00908504 0)
(-0.0352339 0.00607372 0)
(-0.0367318 0.00282029 0)
(-0.0371639 -0.000615291 0)
(-0.036476 -0.00416207 0)
(-0.0346311 -0.00772774 0)
(-0.031619 -0.0111846 0)
(-0.0274748 -0.014344 0)
(-0.0223097 -0.0169051 0)
(-0.0163515 -0.0183579 0)
(-0.0100292 -0.0178507 0)
(-0.00429919 -0.0141629 0)
(-0.000875595 -0.00615724 0)
(-0.000912228 0.00793927 0)
(-0.00438608 0.0176053 0)
(-0.0101048 0.0219072 0)
(-0.0163933 0.0226442 0)
(-0.0224224 0.0213519 0)
(-0.0278738 0.0189317 0)
(-0.0325637 0.015817 0)
(-0.0363639 0.012206 0)
(-0.0391771 0.00820262 0)
(-0.0409206 0.00388031 0)
(-0.0415185 -0.000690742 0)
(-0.0409003 -0.00542765 0)
(-0.0390042 -0.010219 0)
(-0.0357888 -0.0149027 0)
(-0.0312575 -0.019228 0)
(-0.0255015 -0.022783 0)
(-0.0187577 -0.024864 0)
(-0.0115197 -0.0242994 0)
(-0.00492279 -0.0194065 0)
(-0.000992777 -0.00854731 0)
(-0.00102973 0.0103993 0)
(-0.00495101 0.0228305 0)
(-0.0113939 0.0282582 0)
(-0.0184507 0.0291125 0)
(-0.0251887 0.0273984 0)
(-0.0312666 0.0242761 0)
(-0.0364994 0.0202984 0)
(-0.0407639 0.0157141 0)
(-0.0439688 0.010648 0)
(-0.0460319 0.00518089 0)
(-0.0468691 -0.000615296 0)
(-0.0463891 -0.00665607 0)
(-0.0444951 -0.0128209 0)
(-0.0410975 -0.0189194 0)
(-0.0361456 -0.0246343 0)
(-0.0296876 -0.029419 0)
(-0.0219564 -0.0323224 0)
(-0.0135243 -0.0317652 0)
(-0.00577145 -0.0254932 0)
(-0.00115515 -0.0113001 0)
(-0.0011856 0.0131982 0)
(-0.00568169 0.0287642 0)
(-0.0130351 0.03544 0)
(-0.0210406 0.036392 0)
(-0.0286385 0.0341777 0)
(-0.0354647 0.0302604 0)
(-0.04134 0.0253308 0)
(-0.0461556 0.0196933 0)
(-0.0498347 0.0134908 0)
(-0.0523032 0.00680342 0)
(-0.0534722 -0.000308096 0)
(-0.0532272 -0.00777414 0)
(-0.0514253 -0.0154831 0)
(-0.0479061 -0.0232306 0)
(-0.0425307 -0.0306343 0)
(-0.0352628 -0.0369853 0)
(-0.026298 -0.0410112 0)
(-0.0162899 -0.0405914 0)
(-0.00695607 -0.0327321 0)
(-0.00138341 -0.0145563 0)
(-0.00139143 0.0164386 0)
(-0.00662673 0.0355989 0)
(-0.0151245 0.0436563 0)
(-0.0242924 0.0446603 0)
(-0.0329149 0.041832 0)
(-0.040611 0.0369965 0)
(-0.0472208 0.0310064 0)
(-0.0526653 0.0242277 0)
(-0.0568973 0.0168176 0)
(-0.0598641 0.00884467 0)
(-0.0614808 0.000340437 0)
(-0.0616116 -0.00866528 0)
(-0.0600576 -0.0180997 0)
(-0.0565604 -0.0277745 0)
(-0.0508425 -0.0372578 0)
(-0.0427131 -0.0456555 0)
(-0.0322556 -0.0512749 0)
(-0.0201759 -0.0512519 0)
(-0.00864778 -0.0415748 0)
(-0.00171104 -0.0185192 0)
(-0.00166537 0.0202534 0)
(-0.00785481 0.0435786 0)
(-0.0177876 0.0531518 0)
(-0.0283629 0.0541142 0)
(-0.0381774 0.050504 0)
(-0.0468484 0.0445852 0)
(-0.054259 0.0374016 0)
(-0.0603843 0.0293881 0)
(-0.0652304 0.0207118 0)
(-0.0687866 0.0114152 0)
(-0.07099 0.00147697 0)
(-0.0716941 -0.00914766 0)
(-0.0706406 -0.0204718 0)
(-0.0674454 -0.0323776 0)
(-0.0616265 -0.044431 0)
(-0.0527253 -0.0555515 0)
(-0.0405654 -0.0635112 0)
(-0.0257941 -0.064397 0)
(-0.0111661 -0.0527001 0)
(-0.00220757 -0.0235048 0)
(-0.00203967 0.0248243 0)
(-0.00947717 0.0530191 0)
(-0.021213 0.0642192 0)
(-0.0334717 0.0649637 0)
(-0.0446322 0.0603219 0)
(-0.0543434 0.0530962 0)
(-0.0625703 0.0445566 0)
(-0.0693775 0.035214 0)
(-0.0748575 0.0252385 0)
(-0.0790737 0.0146306 0)
(-0.0820148 0.00328769 0)
(-0.0835492 -0.00895433 0)
(-0.0833733 -0.0222614 0)
(-0.0809619 -0.0366786 0)
(-0.075556 -0.0518725 0)
(-0.066265 -0.0666396 0)
(-0.0523851 -0.0781194 0)
(-0.0342166 -0.080916 0)
(-0.0151424 -0.0671804 0)
(-0.00302943 -0.0300604 0)
(-0.00257437 0.0304176 0)
(-0.0116825 0.0643457 0)
(-0.0256944 0.0772104 0)
(-0.0399349 0.0774195 0)
(-0.05255 0.0713743 0)
(-0.0632867 0.0625387 0)
(-0.0722522 0.0524445 0)
(-0.0796497 0.0416823 0)
(-0.0857015 0.0304165 0)
(-0.0905873 0.0185881 0)
(-0.0943921 0.00598449 0)
(-0.0970478 -0.00772693 0)
(-0.098252 -0.0229501 0)
(-0.0973609 -0.0400313 0)
(-0.0932896 -0.0589336 0)
(-0.0845167 -0.0785305 0)
(-0.0693799 -0.09535 0)
(-0.0472202 -0.101976 0)
(-0.0217996 -0.0867684 0)
(-0.00452777 -0.0392361 0)
(-0.00338488 0.0374525 0)
(-0.0147965 0.0781491 0)
(-0.0316882 0.0925398 0)
(-0.0481891 0.0916596 0)
(-0.0622482 0.0836611 0)
(-0.073836 0.0728076 0)
(-0.0832911 0.060917 0)
(-0.0910173 0.0486532 0)
(-0.097418 0.036162 0)
(-0.102838 0.0233093 0)
(-0.107517 0.00975076 0)
(-0.111522 -0.0050564 0)
(-0.114646 -0.0218422 0)
(-0.116226 -0.0414324 0)
(-0.114888 -0.0644029 0)
(-0.108323 -0.0901484 0)
(-0.0933362 -0.114924 0)
(-0.0672425 -0.128843 0)
(-0.0332481 -0.114213 0)
(-0.00742648 -0.0530979 0)
(-0.00469603 0.0466319 0)
(-0.0193798 0.0952596 0)
(-0.0398646 0.110648 0)
(-0.0587411 0.107735 0)
(-0.0739309 0.0969836 0)
(-0.0858564 0.0835734 0)
(-0.0952132 0.0695967 0)
(-0.102678 0.0557628 0)
(-0.108888 0.0421764 0)
(-0.114396 0.0286155 0)
(-0.119647 0.0145979 0)
(-0.12493 -0.000642316 0)
(-0.130268 -0.0182187 0)
(-0.135174 -0.0396152 0)
(-0.138209 -0.0664397 0)
(-0.136325 -0.0993684 0)
(-0.124299 -0.135308 0)
(-0.0960295 -0.162034 0)
(-0.0521843 -0.153039 0)
(-0.0129617 -0.0753177 0)
(-0.00694045 0.05919 0)
(-0.0263539 0.116806 0)
(-0.0510366 0.131834 0)
(-0.0717868 0.125315 0)
(-0.0870102 0.110681 0)
(-0.0979903 0.0940299 0)
(-0.105947 0.0776403 0)
(-0.111907 0.0621974 0)
(-0.116775 0.04772 0)
(-0.121324 0.0338802 0)
(-0.126211 0.0200696 0)
(-0.131985 0.00533174 0)
(-0.139012 -0.0118124 0)
(-0.147243 -0.0336012 0)
(-0.155623 -0.0630859 0)
(-0.160892 -0.103218 0)
(-0.155935 -0.153206 0)
(-0.130324 -0.199983 0)
(-0.0794255 -0.206332 0)
(-0.022468 -0.111573 0)
(-0.0109038 0.0773656 0)
(-0.0370336 0.144081 0)
(-0.0654971 0.155665 0)
(-0.0856666 0.142978 0)
(-0.0978349 0.122934 0)
(-0.104851 0.10227 0)
(-0.108649 0.0832097 0)
(-0.110653 0.0662552 0)
(-0.112004 0.0512362 0)
(-0.113614 0.0376692 0)
(-0.11625 0.0248293 0)
(-0.120617 0.0116439 0)
(-0.127388 -0.00360908 0)
(-0.137103 -0.0238322 0)
(-0.149657 -0.0536907 0)
(-0.162766 -0.0992873 0)
(-0.169041 -0.164297 0)
(-0.154776 -0.238278 0)
(-0.107709 -0.274727 0)
(-0.0350264 -0.170144 0)
(-0.0178263 0.10539 0)
(-0.0524675 0.177333 0)
(-0.0800467 0.178716 0)
(-0.0917257 0.155943 0)
(-0.0932774 0.128909 0)
(-0.0900167 0.103935 0)
(-0.0845613 0.0825766 0)
(-0.0785421 0.0648021 0)
(-0.0730863 0.0500449 0)
(-0.0689639 0.0375688 0)
(-0.0667605 0.0265317 0)
(-0.0670423 0.0158465 0)
(-0.0705095 0.00378943 0)
(-0.0781309 -0.0127899 0)
(-0.0910779 -0.0396808 0)
(-0.109605 -0.0861109 0)
(-0.129503 -0.162024 0)
(-0.137953 -0.265114 0)
(-0.114746 -0.347801 0)
(-0.0418705 -0.257628 0)
(-0.0286518 0.151294 0)
(-0.0691627 0.210574 0)
(-0.0762199 0.187223 0)
(-0.0594371 0.150897 0)
(-0.0361802 0.118119 0)
(-0.0130654 0.0912283 0)
(0.00803829 0.0700449 0)
(0.0263105 0.0536553 0)
(0.0414088 0.0409558 0)
(0.0532871 0.0309358 0)
(0.0619818 0.0226971 0)
(0.0674293 0.0152938 0)
(0.0692625 0.00736793 0)
(0.066476 -0.00363025 0)
(0.0568965 -0.0229489 0)
(0.0369766 -0.0606758 0)
(0.0039185 -0.132354 0)
(-0.0377189 -0.249857 0)
(-0.0637745 -0.381863 0)
(-0.0201159 -0.349666 0)
(-0.0299404 0.220041 0)
(-0.0439839 0.218506 0)
(0.0233699 0.155354 0)
(0.0965292 0.11201 0)
(0.155726 0.0820126 0)
(0.202193 0.0598906 0)
(0.238884 0.0437293 0)
(0.267678 0.0321508 0)
(0.290027 0.0238539 0)
(0.30717 0.0177973 0)
(0.320045 0.0132033 0)
(0.32922 0.00941941 0)
(0.334763 0.00569389 0)
(0.335878 0.000756565 0)
(0.330065 -0.00809 0)
(0.311649 -0.0269696 0)
(0.270376 -0.0695722 0)
(0.194408 -0.160186 0)
(0.0962009 -0.302913 0)
(0.07466 -0.350421 0)
(0.262103 0.134313 0)
(0.325328 0.119747 0)
(0.446957 0.0801439 0)
(0.545131 0.0536609 0)
(0.609105 0.036655 0)
(0.651487 0.02504 0)
(0.68109 0.0170523 0)
(0.702234 0.0116685 0)
(0.717459 0.00808571 0)
(0.728521 0.00569616 0)
(0.736592 0.00406949 0)
(0.742343 0.00289276 0)
(0.745954 0.00189266 0)
(0.746926 0.000725006 0)
(0.743438 -0.00123813 0)
(0.730968 -0.00536366 0)
(0.699099 -0.0150885 0)
(0.628154 -0.0384304 0)
(0.479638 -0.0959605 0)
(0.355288 -0.146539 0)
)
;

boundaryField
{
    movingWall
    {
        type            fixedValue;
        value           uniform (1 0 0);
    }
    fixedWalls
    {
        type            noSlip;
    }
    frontAndBack
    {
        type            empty;
    }
}


// ************************************************************************* //
