/*--------------------------------*- C++ -*----------------------------------*\
  =========                 |
  \\      /  F ield         | OpenFOAM: The Open Source CFD Toolbox
   \\    /   O peration     | Website:  https://openfoam.org
    \\  /    A nd           | Version:  6
     \\/     M anipulation  |
\*---------------------------------------------------------------------------*/
FoamFile
{
    version     2.0;
    format      ascii;
    class       surfaceScalarField;
    location    "0.265";
    object      phi;
}
// * * * * * * * * * * * * * * * * * * * * * * * * * * * * * * * * * * * * * //

dimensions      [0 3 -1 0 0 0 0];

internalField   nonuniform List<scalar> 
760
(
1.98549e-09
-1.98554e-09
-3.52212e-08
3.72067e-08
-1.05427e-07
7.02055e-08
-1.94473e-07
8.90458e-08
-2.90933e-07
9.64609e-08
-3.86398e-07
9.5465e-08
-4.74387e-07
8.79883e-08
-5.4923e-07
7.48433e-08
-6.05299e-07
5.60691e-08
-6.36834e-07
3.15349e-08
-6.38459e-07
1.62477e-09
-6.06333e-07
-3.21258e-08
-5.39748e-07
-6.65846e-08
-4.42775e-07
-9.6973e-08
-3.25338e-07
-1.17437e-07
-2.02981e-07
-1.22358e-07
-9.47714e-08
-1.08209e-07
-1.94502e-08
-7.53212e-08
1.01069e-08
-2.9557e-08
1.01069e-08
-3.80683e-08
3.60828e-08
-1.5516e-07
1.54298e-07
-3.34144e-07
2.4919e-07
-5.50665e-07
3.05567e-07
-7.82076e-07
3.27872e-07
-1.00953e-06
3.22924e-07
-1.21734e-06
2.9579e-07
-1.39154e-06
2.49049e-07
-1.51896e-06
1.8349e-07
-1.58708e-06
9.96537e-08
-1.58515e-06
-3.10172e-10
-1.50637e-06
-1.10899e-07
-1.35087e-06
-2.22089e-07
-1.12853e-06
-3.1931e-07
-8.60795e-07
-3.85174e-07
-5.79841e-07
-4.03312e-07
-3.24215e-07
-3.63834e-07
-1.30713e-07
-2.68823e-07
-2.33511e-08
-1.36919e-07
-1.32442e-08
-7.79489e-08
1.14032e-07
-2.70952e-07
3.47301e-07
-5.43652e-07
5.21891e-07
-8.62504e-07
6.24419e-07
-1.19787e-06
6.63233e-07
-1.52473e-06
6.49789e-07
-1.82176e-06
5.92823e-07
-2.0698e-06
4.97089e-07
-2.25079e-06
3.64475e-07
-2.34776e-06
1.96626e-07
-2.34623e-06
-1.83867e-09
-2.23691e-06
-2.20218e-07
-2.01943e-06
-4.3957e-07
-1.70622e-06
-6.32519e-07
-1.32518e-06
-7.66222e-07
-9.19166e-07
-8.09322e-07
-5.40703e-07
-7.42297e-07
-2.41279e-07
-5.68247e-07
-5.75205e-08
-3.20677e-07
-7.07647e-08
-1.10743e-07
2.24775e-07
-3.70923e-07
6.07481e-07
-7.26271e-07
8.77238e-07
-1.13315e-06
1.03129e-06
-1.5561e-06
1.08619e-06
-1.96623e-06
1.05992e-06
-2.33907e-06
9.65662e-07
-2.65247e-06
8.10496e-07
-2.88518e-06
5.97184e-07
-3.01657e-06
3.28017e-07
-3.02802e-06
9.60602e-09
-2.90591e-06
-3.42326e-07
-2.64625e-06
-6.9923e-07
-2.26008e-06
-1.01869e-06
-1.77818e-06
-1.24812e-06
-1.25241e-06
-1.33509e-06
-7.50523e-07
-1.24419e-06
-3.43013e-07
-9.75758e-07
-8.47364e-08
-5.78953e-07
-1.55501e-07
-1.38208e-07
3.62983e-07
-4.57586e-07
9.26859e-07
-8.87052e-07
1.30671e-06
-1.37319e-06
1.51743e-06
-1.87554e-06
1.58854e-06
-2.36282e-06
1.54719e-06
-2.80922e-06
1.41207e-06
-3.19128e-06
1.19255e-06
-3.48553e-06
8.91437e-07
-3.66768e-06
5.10164e-07
-3.71346e-06
5.53936e-08
-3.60183e-06
-4.53962e-07
-3.32053e-06
-9.80527e-07
-2.87402e-06
-1.46519e-06
-2.29193e-06
-1.83022e-06
-1.63437e-06
-1.99265e-06
-9.88753e-07
-1.8898e-06
-4.53491e-07
-1.51102e-06
-1.10768e-07
-9.21676e-07
-2.66269e-07
-1.62414e-07
5.25397e-07
-5.35491e-07
1.29994e-06
-1.03345e-06
1.80466e-06
-1.59403e-06
2.07801e-06
-2.17277e-06
2.16728e-06
-2.73738e-06
2.1118e-06
-3.2624e-06
1.93708e-06
-3.72451e-06
1.65466e-06
-4.099e-06
1.26593e-06
-4.35767e-06
7.68835e-07
-4.46877e-06
1.66493e-07
-4.39981e-06
-5.22922e-07
-4.12427e-06
-1.25606e-06
-3.63277e-06
-1.9567e-06
-2.94729e-06
-2.5157e-06
-2.13393e-06
-2.80601e-06
-1.30491e-06
-2.71882e-06
-5.99864e-07
-2.21606e-06
-1.44185e-07
-1.37735e-06
-4.10455e-07
-1.8497e-07
7.10367e-07
-6.0868e-07
1.72365e-06
-1.17192e-06
2.36791e-06
-1.80454e-06
2.71063e-06
-2.45922e-06
2.82197e-06
-3.10425e-06
2.75683e-06
-3.71627e-06
2.5491e-06
-4.27394e-06
2.21232e-06
-4.75259e-06
1.74458e-06
-5.12039e-06
1.13663e-06
-5.33657e-06
3.8267e-07
-5.35321e-06
-5.0628e-07
-5.12257e-06
-1.4867e-06
-4.61184e-06
-2.46743e-06
-3.82513e-06
-3.30241e-06
-2.8276e-06
-3.80354e-06
-1.75888e-06
-3.78754e-06
-8.16571e-07
-3.15837e-06
-1.95559e-07
-1.99837e-06
-6.06014e-07
-2.06991e-07
9.17358e-07
-6.80027e-07
2.19668e-06
-1.30666e-06
2.99453e-06
-2.00936e-06
3.41334e-06
-2.73915e-06
3.55176e-06
-3.46655e-06
3.48422e-06
-4.17241e-06
3.25497e-06
-4.83959e-06
2.8795e-06
-5.44549e-06
2.35048e-06
-5.95594e-06
1.64709e-06
-6.32099e-06
7.47719e-07
-6.47459e-06
-3.52678e-07
-6.34149e-06
-1.6198e-06
-5.85486e-06
-2.95407e-06
-4.98656e-06
-4.17071e-06
-3.78637e-06
-5.00373e-06
-2.41563e-06
-5.15828e-06
-1.14514e-06
-4.42886e-06
-2.78222e-07
-2.86529e-06
-8.84236e-07
-2.2924e-07
1.1466e-06
-7.51363e-07
2.7188e-06
-1.43947e-06
3.68264e-06
-2.2085e-06
4.18237e-06
-3.00865e-06
4.35191e-06
-3.81439e-06
4.28996e-06
-4.61295e-06
4.05354e-06
-5.39389e-06
3.66044e-06
-6.1395e-06
3.09608e-06
-6.81605e-06
2.32365e-06
-7.36662e-06
1.29829e-06
-7.70768e-06
-1.16205e-08
-7.73384e-06
-1.59364e-06
-7.33599e-06
-3.35192e-06
-6.43753e-06
-5.06916e-06
-5.04925e-06
-6.392e-06
-3.33229e-06
-6.87525e-06
-1.63262e-06
-6.12853e-06
-4.09643e-07
-4.08827e-06
-1.29388e-06
-2.52594e-07
1.39919e-06
-8.24419e-07
3.29063e-06
-1.57093e-06
4.42915e-06
-2.39823e-06
5.00967e-06
-3.25621e-06
5.20988e-06
-4.1246e-06
5.15835e-06
-4.99889e-06
4.92783e-06
-5.8777e-06
4.53925e-06
-6.75141e-06
3.96979e-06
-7.59111e-06
3.16335e-06
-8.33848e-06
2.04566e-06
-8.89875e-06
5.48646e-07
-9.14132e-06
-1.35107e-06
-8.91428e-06
-3.57895e-06
-8.08016e-06
-5.90329e-06
-6.58054e-06
-7.89162e-06
-4.53197e-06
-8.92382e-06
-2.32514e-06
-8.33536e-06
-6.13453e-07
-5.79995e-06
-1.90733e-06
-2.78934e-07
1.67813e-06
-9.0272e-07
3.91442e-06
-1.70274e-06
5.22917e-06
-2.57369e-06
5.88062e-06
-3.46516e-06
6.10136e-06
-4.36313e-06
6.05632e-06
-5.27238e-06
5.83708e-06
-6.20221e-06
5.46908e-06
-7.15403e-06
4.92161e-06
-8.10935e-06
4.11866e-06
-9.01768e-06
2.95399e-06
-9.78622e-06
1.31718e-06
-1.02747e-05
-8.62557e-07
-1.03012e-05
-3.55247e-06
-9.66701e-06
-6.53749e-06
-8.21721e-06
-9.34141e-06
-5.95994e-06
-1.11811e-05
-3.24953e-06
-1.10458e-05
-9.20912e-07
-8.12856e-06
-2.82824e-06
-3.12698e-07
1.99082e-06
-9.94652e-07
4.59637e-06
-1.84147e-06
6.07599e-06
-2.73273e-06
6.77187e-06
-3.61818e-06
6.98681e-06
-4.49087e-06
6.92901e-06
-5.36514e-06
6.71134e-06
-6.26131e-06
6.36525e-06
-7.19397e-06
5.85427e-06
-8.16085e-06
5.08555e-06
-9.13106e-06
3.9242e-06
-1.00327e-05
2.21885e-06
-1.07418e-05
-1.53531e-07
-1.10742e-05
-3.21999e-06
-1.07901e-05
-6.82159e-06
-9.62956e-06
-1.0502e-05
-7.42835e-06
-1.33823e-05
-4.37385e-06
-1.41003e-05
-1.36663e-06
-1.11358e-05
-4.19487e-06
-3.63629e-07
2.35445e-06
-1.11809e-06
5.35083e-06
-2.00321e-06
6.96111e-06
-2.8803e-06
7.64897e-06
-3.70223e-06
7.80874e-06
-4.47133e-06
7.69811e-06
-5.21171e-06
7.45173e-06
-5.95422e-06
7.10776e-06
-6.7274e-06
6.62745e-06
-7.54984e-06
5.908e-06
-8.42125e-06
4.79561e-06
-9.31061e-06
3.1082e-06
-1.014e-05
6.75869e-07
-1.07631e-05
-2.59692e-06
-1.09409e-05
-6.64378e-06
-1.03352e-05
-1.11077e-05
-8.57909e-06
-1.51384e-05
-5.54908e-06
-1.71303e-05
-1.96761e-06
-1.47173e-05
-6.16248e-06
-4.51749e-07
2.8062e-06
-1.30686e-06
6.20595e-06
-2.21757e-06
7.87181e-06
-3.02933e-06
8.46072e-06
-3.70835e-06
8.48776e-06
-4.27256e-06
8.26233e-06
-4.75781e-06
7.93697e-06
-5.20514e-06
7.55509e-06
-5.65669e-06
7.07899e-06
-6.15342e-06
6.40473e-06
-6.73143e-06
5.37362e-06
-7.41344e-06
3.79021e-06
-8.19155e-06
1.45399e-06
-8.99624e-06
-1.79224e-06
-9.6476e-06
-5.99242e-06
-9.79697e-06
-1.09583e-05
-8.91087e-06
-1.60245e-05
-6.46288e-06
-1.95783e-05
-2.6771e-06
-1.8503e-05
-8.83958e-06
-6.16438e-07
3.42264e-06
-1.61826e-06
7.20776e-06
-2.52487e-06
8.77842e-06
-3.18739e-06
9.12324e-06
-3.61112e-06
8.91149e-06
-3.84345e-06
8.49466e-06
-3.93759e-06
8.0311e-06
-3.94604e-06
7.56355e-06
-3.92313e-06
7.05608e-06
-3.92938e-06
6.41098e-06
-4.03422e-06
5.47847e-06
-4.31324e-06
4.06923e-06
-4.83504e-06
1.97579e-06
-5.6304e-06
-9.96885e-07
-6.63311e-06
-4.98971e-06
-7.5806e-06
-1.00108e-05
-7.88769e-06
-1.57174e-05
-6.65164e-06
-2.08143e-05
-3.32682e-06
-2.18279e-05
-1.21664e-05
-9.30903e-07
4.35354e-06
-2.13273e-06
8.4096e-06
-2.94327e-06
9.58896e-06
-3.29527e-06
9.47524e-06
-3.28669e-06
8.90291e-06
-3.01781e-06
8.22578e-06
-2.56838e-06
7.58168e-06
-2.00436e-06
6.99952e-06
-1.38912e-06
6.44083e-06
-7.94972e-07
5.81683e-06
-3.12549e-07
4.99604e-06
-5.49915e-08
3.81168e-06
-1.52758e-07
2.07355e-06
-7.32685e-07
-4.16958e-07
-1.86855e-06
-3.85384e-06
-3.47259e-06
-8.40681e-06
-5.07882e-06
-1.41112e-05
-5.58474e-06
-2.03084e-05
-3.59431e-06
-2.38183e-05
-1.57607e-05
-1.5148e-06
5.86835e-06
-2.88964e-06
9.78443e-06
-3.30995e-06
1.00093e-05
-3.00488e-06
9.17017e-06
-2.25646e-06
8.15449e-06
-1.24316e-06
7.21248e-06
-7.38589e-08
6.41237e-06
1.1777e-06
5.74796e-06
2.44933e-06
5.16921e-06
3.6714e-06
4.59476e-06
4.7511e-06
3.91635e-06
5.56153e-06
3.00124e-06
5.93832e-06
1.69677e-06
5.68697e-06
-1.65609e-07
4.60947e-06
-2.77634e-06
2.58209e-06
-6.37943e-06
-2.12569e-07
-1.13165e-05
-2.77062e-06
-1.77503e-05
-3.02208e-06
-2.35668e-05
-1.87828e-05
-2.484e-06
8.35234e-06
-3.4569e-06
1.07573e-05
-2.61917e-06
9.17154e-06
-9.57997e-07
7.509e-06
9.95535e-07
6.20096e-06
3.0284e-06
5.17961e-06
5.04938e-06
4.3914e-06
7.01234e-06
3.785e-06
8.88435e-06
3.2972e-06
1.06226e-05
2.85652e-06
1.21555e-05
2.38345e-06
1.33681e-05
1.7886e-06
1.40925e-05
9.72404e-07
1.41031e-05
-1.76256e-07
1.31205e-05
-1.79374e-06
1.08375e-05
-4.09641e-06
7.06186e-06
-7.54085e-06
2.3209e-06
-1.30094e-05
-1.07287e-06
-2.01731e-05
-1.98557e-05
-2.93878e-06
1.12911e-05
-6.3951e-07
8.45807e-06
3.24619e-06
5.28584e-06
6.95231e-06
3.80288e-06
1.02508e-05
2.90244e-06
1.31773e-05
2.25313e-06
1.5779e-05
1.7897e-06
1.8102e-05
1.46197e-06
2.01809e-05
1.21834e-06
2.20233e-05
1.01413e-06
2.35974e-05
8.09294e-07
2.48217e-05
5.6434e-07
2.5555e-05
2.39123e-07
2.55867e-05
-2.08022e-07
2.46209e-05
-8.27868e-07
2.22453e-05
-1.72086e-06
1.79054e-05
-3.20091e-06
1.11774e-05
-6.28136e-06
3.32771e-06
-1.23234e-05
-1.65279e-05
1.12911e-05
1.97492e-05
2.5035e-05
2.88379e-05
3.17403e-05
3.39935e-05
3.57832e-05
3.72451e-05
3.84635e-05
3.94776e-05
4.02869e-05
4.08513e-05
4.10904e-05
4.08824e-05
4.00545e-05
3.83336e-05
3.51327e-05
2.88514e-05
1.65279e-05
)
;

boundaryField
{
    movingWall
    {
        type            calculated;
        value           uniform 0;
    }
    fixedWalls
    {
        type            calculated;
        value           uniform 0;
    }
    frontAndBack
    {
        type            empty;
        value           nonuniform 0();
    }
}


// ************************************************************************* //
