/*--------------------------------*- C++ -*----------------------------------*\
  =========                 |
  \\      /  F ield         | OpenFOAM: The Open Source CFD Toolbox
   \\    /   O peration     | Website:  https://openfoam.org
    \\  /    A nd           | Version:  6
     \\/     M anipulation  |
\*---------------------------------------------------------------------------*/
FoamFile
{
    version     2.0;
    format      ascii;
    class       volScalarField;
    location    "0.04";
    object      p;
}
// * * * * * * * * * * * * * * * * * * * * * * * * * * * * * * * * * * * * * //

dimensions      [0 2 -2 0 0 0 0];

internalField   nonuniform List<scalar> 
400
(
1.49156e-06
-0.0231702
-0.0520168
-0.07424
-0.0825381
-0.0736409
-0.0473044
-0.00546131
0.0484674
0.110089
0.174437
0.236325
0.290689
0.332973
0.35959
0.368509
0.359988
0.337434
0.308363
0.285203
0.0229587
-0.000847581
-0.0234833
-0.0388028
-0.0432143
-0.0344215
-0.0121277
0.0222746
0.0661914
0.116204
0.16839
0.21863
0.262919
0.297701
0.320244
0.329066
0.324473
0.308869
0.286038
0.262271
0.0534718
0.0204835
-0.00401051
-0.0181404
-0.0217237
-0.0135097
0.00647983
0.0368962
0.0754697
0.119276
0.164971
0.209035
0.248033
0.278892
0.299186
0.307463
0.303693
0.289236
0.264489
0.231531
0.0815259
0.0358874
0.00542745
-0.0106877
-0.0150679
-0.00738888
0.0118533
0.041066
0.0779708
0.119795
0.163427
0.205598
0.243086
0.272928
0.29264
0.300481
0.295919
0.279389
0.248544
0.202847
0.100613
0.041604
0.00399606
-0.0149631
-0.0202756
-0.0124393
0.00752829
0.0376636
0.0755138
0.118278
0.162894
0.206156
0.244857
0.275947
0.296693
0.304906
0.29948
0.280018
0.241828
0.182558
0.10606
0.0334058
-0.0116587
-0.0333867
-0.0389664
-0.0296775
-0.00710769
0.0263096
0.067827
0.114489
0.16315
0.210534
0.253311
0.288195
0.312051
0.322109
0.316605
0.294327
0.248418
0.175142
0.0938134
0.00709875
-0.0452997
-0.0690213
-0.0734847
-0.0608156
-0.0332641
0.006165
0.0543344
0.108047
0.163997
0.218757
0.268782
0.310443
0.340071
0.354169
0.350176
0.325954
0.272397
0.184492
0.0595394
-0.0419051
-0.101124
-0.125317
-0.126472
-0.107769
-0.0722758
-0.023685
0.0344059
0.0985235
0.165188
0.230807
0.291596
0.343522
0.382275
0.403455
0.403485
0.379035
0.318327
0.21487
-0.00209068
-0.119194
-0.184217
-0.206421
-0.201069
-0.172777
-0.125672
-0.0642634
0.00735336
0.0854582
0.166461
0.246679
0.322145
0.388428
0.440498
0.472858
0.480593
0.458702
0.391915
0.2717
-0.0981047
-0.231967
-0.300927
-0.317311
-0.300859
-0.258242
-0.194969
-0.116501
-0.0274108
0.0684548
0.167566
0.266338
0.360786
0.446189
0.516783
0.565776
0.586489
0.571512
0.500701
0.362367
-0.238173
-0.389833
-0.459286
-0.46383
-0.429652
-0.366377
-0.281292
-0.180895
-0.0701074
0.0473474
0.168317
0.289653
0.407676
0.517636
0.613148
0.685983
0.727205
0.725935
0.654942
0.497291
-0.436209
-0.606019
-0.669523
-0.652629
-0.591081
-0.498663
-0.384816
-0.25702
-0.120222
0.0224332
0.168679
0.316334
0.462561
0.603068
0.731203
0.837348
0.90984
0.932949
0.868941
0.691693
-0.713454
-0.899309
-0.944632
-0.890811
-0.787807
-0.654943
-0.503948
-0.342874
-0.176029
-0.0052389
0.168863
0.345829
0.524456
0.701735
0.871501
1.02321
1.14232
1.20669
1.16309
0.968905
-1.10489
-1.29718
-1.30066
-1.18482
-1.01998
-0.831947
-0.634126
-0.434003
-0.234025
-0.0335743
0.169374
0.377101
0.59112
0.810953
1.03232
1.24506
1.43242
1.56483
1.56715
1.36711
-1.67246
-1.84041
-1.75563
-1.5374
-1.28211
-1.0208
-0.766101
-0.522455
-0.288385
-0.0592512
0.170875
0.408156
0.658135
0.924569
1.20735
1.4995
1.78481
2.02751
2.12487
1.95295
-2.52789
-2.58713
-2.32547
-1.94248
-1.55885
-1.20422
-0.884429
-0.59617
-0.330878
-0.0779304
0.173801
0.43545
0.717914
1.03125
1.38289
1.77418
2.19595
2.61316
2.89771
2.84423
-3.87288
-3.61298
-3.01646
-2.38084
-1.82324
-1.35642
-0.968443
-0.640393
-0.352248
-0.0853102
0.177737
0.453662
0.759695
1.11428
1.53691
2.04546
2.64947
3.33061
3.9643
4.24899
-6.15933
-5.01369
-3.78642
-2.79028
-2.0193
-1.43419
-0.988441
-0.636641
-0.342541
-0.0781186
0.179962
0.453554
0.766012
1.14537
1.62787
2.25903
3.0847
4.13977
5.42503
6.62744
-10.5694
-6.84897
-4.35765
-2.915
-1.96816
-1.3231
-0.875157
-0.545584
-0.282423
-0.0515891
0.172464
0.412825
0.695084
1.05341
1.53999
2.23479
3.24508
4.76456
7.34524
11.1676
-17.9825
-8.61121
-4.15445
-2.37812
-1.46173
-0.91846
-0.57845
-0.344566
-0.163459
-0.00553357
0.149001
0.317337
0.519219
0.784055
1.16489
1.76034
2.74776
4.62121
9.19196
18.678
)
;

boundaryField
{
    movingWall
    {
        type            zeroGradient;
    }
    fixedWalls
    {
        type            zeroGradient;
    }
    frontAndBack
    {
        type            empty;
    }
}


// ************************************************************************* //
