/*--------------------------------*- C++ -*----------------------------------*\
  =========                 |
  \\      /  F ield         | OpenFOAM: The Open Source CFD Toolbox
   \\    /   O peration     | Website:  https://openfoam.org
    \\  /    A nd           | Version:  6
     \\/     M anipulation  |
\*---------------------------------------------------------------------------*/
FoamFile
{
    version     2.0;
    format      ascii;
    class       surfaceScalarField;
    location    "0.04";
    object      phi;
}
// * * * * * * * * * * * * * * * * * * * * * * * * * * * * * * * * * * * * * //

dimensions      [0 3 -1 0 0 0 0];

internalField   nonuniform List<scalar> 
760
(
1.47297e-08
-1.47323e-08
-2.08923e-08
3.56219e-08
-1.12746e-07
9.18533e-08
-2.44601e-07
1.31855e-07
-3.96404e-07
1.51803e-07
-5.48874e-07
1.52469e-07
-6.85334e-07
1.36461e-07
-7.92552e-07
1.07219e-07
-8.60991e-07
6.84384e-08
-8.8484e-07
2.38493e-08
-8.62024e-07
-2.28162e-08
-7.94243e-07
-6.77807e-08
-6.8707e-07
-1.07173e-07
-5.5004e-07
-1.37031e-07
-3.9663e-07
-1.5341e-07
-2.43927e-07
-1.52703e-07
-1.11619e-07
-1.32307e-07
-1.9947e-08
-9.16718e-08
1.5088e-08
-3.50348e-08
1.50876e-08
-3.30022e-08
1.82698e-08
-1.7767e-07
1.80288e-07
-4.30878e-07
3.45062e-07
-7.62478e-07
4.63455e-07
-1.13242e-06
5.21747e-07
-1.49958e-06
5.19625e-07
-1.82673e-06
4.63617e-07
-2.08336e-06
3.63852e-07
-2.247e-06
2.32074e-07
-2.30381e-06
8.06649e-08
-2.24892e-06
-7.77112e-08
-2.08652e-06
-2.30182e-07
-1.83e-06
-3.63695e-07
-1.50181e-06
-4.65214e-07
-1.13293e-06
-5.22298e-07
-7.61283e-07
-5.24347e-07
-4.28755e-07
-4.64835e-07
-1.75762e-07
-3.44664e-07
-3.21511e-08
-1.78647e-07
-1.70632e-08
-9.05085e-08
1.08778e-07
-3.53315e-07
4.43094e-07
-7.60634e-07
7.52381e-07
-1.26636e-06
9.69181e-07
-1.81553e-06
1.07091e-06
-2.35256e-06
1.05666e-06
-2.82708e-06
9.38134e-07
-3.19749e-06
7.34268e-07
-3.43303e-06
4.67608e-07
-3.5147e-06
1.62334e-07
-3.43579e-06
-1.56617e-07
-3.20212e-06
-4.63859e-07
-2.83205e-06
-7.33757e-07
-2.35631e-06
-9.40952e-07
-1.81699e-06
-1.06162e-06
-1.26541e-06
-1.07593e-06
-7.58163e-07
-9.72085e-07
-3.5083e-07
-7.51997e-07
-8.92932e-08
-4.40183e-07
-1.06356e-07
-1.43045e-07
2.51823e-07
-5.21467e-07
8.21516e-07
-1.07837e-06
1.30929e-06
-1.7475e-06
1.63831e-06
-2.45863e-06
1.78205e-06
-3.1441e-06
1.74212e-06
-3.74394e-06
1.53797e-06
-4.20928e-06
1.19961e-06
-4.50418e-06
7.62513e-07
-4.60656e-06
2.64707e-07
-4.50855e-06
-2.54626e-07
-4.21679e-06
-7.55617e-07
-3.75253e-06
-1.19802e-06
-3.15149e-06
-1.54199e-06
-2.4631e-06
-1.75001e-06
-1.74846e-06
-1.79056e-06
-1.07664e-06
-1.64391e-06
-5.18916e-07
-1.30972e-06
-1.41582e-07
-8.17517e-07
-2.47937e-07
-1.9139e-07
4.43213e-07
-6.82174e-07
1.3123e-06
-1.38597e-06
2.01309e-06
-2.21372e-06
2.46606e-06
-3.07859e-06
2.64692e-06
-3.90134e-06
2.56488e-06
-4.61432e-06
2.25095e-06
-5.16375e-06
1.74904e-06
-5.5108e-06
1.10956e-06
-5.63177e-06
3.85678e-07
-5.51816e-06
-3.68235e-07
-5.17676e-06
-1.09701e-06
-4.63e-06
-1.74478e-06
-3.91624e-06
-2.25575e-06
-3.08975e-06
-2.5765e-06
-2.21962e-06
-2.66069e-06
-1.38704e-06
-2.47648e-06
-6.80587e-07
-2.01618e-06
-1.89943e-07
-1.30816e-06
-4.37879e-07
-2.38427e-07
6.81639e-07
-8.4125e-07
1.91513e-06
-1.69202e-06
2.86385e-06
-2.67675e-06
3.45079e-06
-3.69074e-06
3.66091e-06
-4.64338e-06
3.51752e-06
-5.46073e-06
3.0683e-06
-6.0862e-06
2.37451e-06
-6.48003e-06
1.50338e-06
-6.61831e-06
5.23961e-07
-6.49231e-06
-4.94235e-07
-6.10834e-06
-1.48098e-06
-5.48837e-06
-2.36474e-06
-4.67128e-06
-3.07285e-06
-3.714e-06
-3.53378e-06
-2.6922e-06
-3.68249e-06
-1.69915e-06
-3.46953e-06
-8.42373e-07
-2.87296e-06
-2.37502e-07
-1.91303e-06
-6.75381e-07
-2.87125e-07
9.68765e-07
-1.00548e-06
2.63348e-06
-2.00588e-06
3.86425e-06
-3.14694e-06
4.59185e-06
-4.30504e-06
4.819e-06
-5.37889e-06
4.59137e-06
-6.29028e-06
3.97968e-06
-6.98229e-06
3.06653e-06
-7.41659e-06
1.93768e-06
-7.57067e-06
6.78041e-07
-7.43606e-06
-6.28846e-07
-7.01787e-06
-1.89918e-06
-6.33584e-06
-3.04678e-06
-5.42671e-06
-3.98198e-06
-4.34743e-06
-4.61305e-06
-3.17815e-06
-4.85178e-06
-2.02368e-06
-4.624e-06
-1.0119e-06
-3.88474e-06
-2.87529e-07
-2.6374e-06
-9.6291e-07
-3.40269e-07
1.30903e-06
-1.18128e-06
3.47449e-06
-2.33541e-06
5.01839e-06
-3.63038e-06
5.88682e-06
-4.92308e-06
6.1117e-06
-6.10341e-06
5.7717e-06
-7.09216e-06
4.96844e-06
-7.83584e-06
3.81021e-06
-8.30072e-06
2.40256e-06
-8.46782e-06
8.45142e-07
-8.32965e-06
-7.67011e-07
-7.8893e-06
-2.33953e-06
-7.16195e-06
-3.77413e-06
-6.17878e-06
-4.96514e-06
-4.99273e-06
-5.79911e-06
-3.68488e-06
-6.15962e-06
-2.36972e-06
-5.93916e-06
-1.19643e-06
-5.05803e-06
-3.43136e-07
-3.49069e-06
-1.30605e-06
-4.00605e-07
1.70964e-06
-1.37444e-06
4.44833e-06
-2.68584e-06
6.32979e-06
-4.12686e-06
7.32784e-06
-5.53521e-06
7.52005e-06
-6.79585e-06
7.03235e-06
-7.83403e-06
6.00662e-06
-8.6051e-06
4.58127e-06
-9.08441e-06
2.88188e-06
-9.25939e-06
1.02012e-06
-9.12456e-06
-9.01839e-07
-8.68002e-06
-2.78407e-06
-7.93348e-06
-4.52067e-06
-6.90588e-06
-5.99274e-06
-5.64027e-06
-7.06472e-06
-4.21277e-06
-7.58712e-06
-2.7434e-06
-7.40853e-06
-1.40255e-06
-6.39888e-06
-4.07417e-07
-4.48583e-06
-1.71346e-06
-4.71414e-07
2.18105e-06
-1.59076e-06
5.56767e-06
-3.0594e-06
7.79843e-06
-4.62784e-06
8.89628e-06
-6.11701e-06
9.00922e-06
-7.41395e-06
8.32928e-06
-8.45678e-06
7.04945e-06
-9.21736e-06
5.34185e-06
-9.68601e-06
3.35052e-06
-9.86019e-06
1.1943e-06
-9.73779e-06
-1.02424e-06
-9.31495e-06
-3.20691e-06
-8.58846e-06
-5.24716e-06
-7.56308e-06
-7.01812e-06
-6.26377e-06
-8.36403e-06
-4.75251e-06
-9.09837e-06
-3.14709e-06
-9.01395e-06
-1.63659e-06
-7.90937e-06
-4.8398e-07
-5.63844e-06
-2.19744e-06
-5.57541e-07
2.73859e-06
-1.83709e-06
6.84722e-06
-3.45462e-06
9.41596e-06
-5.11333e-06
1.0555e-05
-6.62392e-06
1.05198e-05
-7.88749e-06
9.59285e-06
-8.86734e-06
8.02929e-06
-9.56186e-06
6.03637e-06
-9.98329e-06
3.77195e-06
-1.01433e-05
1.35429e-06
-1.00447e-05
-1.12282e-06
-9.6789e-06
-3.57271e-06
-9.02823e-06
-5.89782e-06
-8.07438e-06
-7.97198e-06
-6.81379e-06
-9.62462e-06
-5.28093e-06
-1.06312e-05
-3.578e-06
-1.07169e-05
-1.90532e-06
-9.58206e-06
-5.77918e-07
-6.96584e-06
-2.77536e-06
-6.67113e-07
3.40571e-06
-2.12247e-06
8.30258e-06
-3.86417e-06
1.11577e-05
-5.5456e-06
1.22364e-05
-6.98214e-06
1.19563e-05
-8.10827e-06
1.0719e-05
-8.92912e-06
8.85014e-06
-9.48129e-06
6.58855e-06
-9.80603e-06
4.0967e-06
-9.93295e-06
1.4812e-06
-9.87146e-06
-1.18431e-06
-9.60785e-06
-3.83632e-06
-9.10725e-06
-6.39842e-06
-8.3218e-06
-8.75743e-06
-7.20753e-06
-1.07389e-05
-5.75353e-06
-1.20852e-05
-4.02507e-06
-1.24453e-05
-2.21668e-06
-1.13904e-05
-6.97436e-07
-8.48509e-06
-3.4728e-06
-8.14314e-07
4.22002e-06
-2.45831e-06
9.94658e-06
-4.26808e-06
1.29674e-05
-5.85633e-06
1.38247e-05
-7.073e-06
1.3173e-05
-7.91504e-06
1.1561e-05
-8.4496e-06
9.3847e-06
-8.76265e-06
6.9016e-06
-8.92937e-06
4.26341e-06
-8.99913e-06
1.55097e-06
-8.98878e-06
-1.19465e-06
-8.8802e-06
-3.9449e-06
-8.621e-06
-6.65762e-06
-8.13004e-06
-9.24839e-06
-7.31227e-06
-1.15567e-05
-6.09032e-06
-1.33072e-05
-4.46087e-06
-1.40748e-05
-2.57912e-06
-1.32722e-05
-8.5645e-07
-1.02078e-05
-4.32925e-06
-1.02328e-06
5.2433e-06
-2.85407e-06
1.17774e-05
-4.61612e-06
1.47295e-05
-5.92039e-06
1.51289e-05
-6.70589e-06
1.39585e-05
-7.07122e-06
1.19264e-05
-7.16529e-06
9.47877e-06
-7.12912e-06
6.86542e-06
-7.07059e-06
4.20488e-06
-7.05628e-06
1.53666e-06
-7.10969e-06
-1.14124e-06
-7.21048e-06
-3.84411e-06
-7.29297e-06
-6.57513e-06
-7.2458e-06
-9.29556e-06
-6.91878e-06
-1.18837e-05
-6.14873e-06
-1.40772e-05
-4.82239e-06
-1.54011e-05
-2.99597e-06
-1.50986e-05
-1.07811e-06
-1.21256e-05
-5.40735e-06
-1.33028e-06
6.57358e-06
-3.29715e-06
1.37442e-05
-4.78415e-06
1.62165e-05
-5.50429e-06
1.58491e-05
-5.57344e-06
1.40277e-05
-5.23424e-06
1.15871e-05
-4.72604e-06
8.97057e-06
-4.23662e-06
6.376e-06
-3.89384e-06
3.8621e-06
-3.77156e-06
1.41438e-06
-3.89643e-06
-1.01636e-06
-4.2499e-06
-3.49064e-06
-4.764e-06
-6.06104e-06
-5.31207e-06
-8.74749e-06
-5.70013e-06
-1.14956e-05
-5.67331e-06
-1.4104e-05
-4.96621e-06
-1.61082e-05
-3.44324e-06
-1.66216e-05
-1.39596e-06
-1.41729e-05
-6.80332e-06
-1.76856e-06
8.34214e-06
-3.6837e-06
1.56594e-05
-4.47302e-06
1.70058e-05
-4.17083e-06
1.55469e-05
-3.18365e-06
1.30405e-05
-1.91938e-06
1.03229e-05
-6.85467e-07
7.73666e-06
3.17282e-07
5.37325e-06
9.7022e-07
3.20916e-06
1.21096e-06
1.17364e-06
1.0166e-06
-8.22007e-07
3.98399e-07
-2.87243e-06
-5.9175e-07
-5.07089e-06
-1.8425e-06
-7.49674e-06
-3.15365e-06
-1.01845e-05
-4.20688e-06
-1.30508e-05
-4.56872e-06
-1.57464e-05
-3.79746e-06
-1.73929e-05
-1.83627e-06
-1.61341e-05
-8.63959e-06
-2.28929e-06
1.06314e-05
-3.62381e-06
1.69939e-05
-2.99429e-06
1.63763e-05
-1.11914e-06
1.36717e-05
1.22764e-06
1.06937e-05
3.52822e-06
8.0223e-06
5.4882e-06
5.77669e-06
6.96075e-06
3.9007e-06
7.88101e-06
2.2889e-06
8.22288e-06
8.3178e-07
7.97619e-06
-5.75322e-07
7.13954e-06
-2.03578e-06
5.72687e-06
-3.65822e-06
3.79069e-06
-5.56057e-06
1.46792e-06
-7.86168e-06
-9.48186e-07
-1.06347e-05
-2.92287e-06
-1.37717e-05
-3.64172e-06
-1.6674e-05
-2.33425e-06
-1.74416e-05
-1.09738e-05
-2.50742e-06
1.31389e-05
-1.96202e-06
1.64485e-05
1.14342e-06
1.32708e-05
5.05013e-06
9.76503e-06
8.77889e-06
6.96494e-06
1.19232e-05
4.87801e-06
1.43578e-05
3.3421e-06
1.60778e-05
2.18071e-06
1.7115e-05
1.25167e-06
1.74983e-05
4.48493e-07
1.72367e-05
-3.13746e-07
1.63145e-05
-1.11354e-06
1.46939e-05
-2.03769e-06
1.23307e-05
-3.1973e-06
9.21301e-06
-4.74403e-06
5.44983e-06
-6.87153e-06
1.44303e-06
-9.76492e-06
-1.80542e-06
-1.34255e-05
-2.47791e-06
-1.67691e-05
-1.34517e-05
-6.05381e-07
1.37442e-05
4.57926e-06
1.12638e-05
1.09953e-05
6.8548e-06
1.65653e-05
4.19506e-06
2.08987e-05
2.63147e-06
2.40985e-05
1.67827e-06
2.63647e-05
1.07589e-06
2.78743e-05
6.71136e-07
2.87522e-05
3.73747e-07
2.90709e-05
1.2979e-07
2.88542e-05
-9.70802e-08
2.80787e-05
-3.38071e-07
2.66706e-05
-6.29528e-07
2.4499e-05
-1.02576e-06
2.13741e-05
-1.61906e-06
1.70728e-05
-2.57028e-06
1.14656e-05
-4.15776e-06
4.92909e-06
-6.88899e-06
-4.42542e-07
-1.13974e-05
-1.38943e-05
1.37442e-05
2.50081e-05
3.18629e-05
3.60579e-05
3.86894e-05
4.03677e-05
4.14436e-05
4.21147e-05
4.24884e-05
4.26182e-05
4.25212e-05
4.21831e-05
4.15536e-05
4.05278e-05
3.89087e-05
3.63385e-05
3.21807e-05
2.52917e-05
1.38943e-05
)
;

boundaryField
{
    movingWall
    {
        type            calculated;
        value           uniform 0;
    }
    fixedWalls
    {
        type            calculated;
        value           uniform 0;
    }
    frontAndBack
    {
        type            empty;
        value           nonuniform 0();
    }
}


// ************************************************************************* //
