/*--------------------------------*- C++ -*----------------------------------*\
  =========                 |
  \\      /  F ield         | OpenFOAM: The Open Source CFD Toolbox
   \\    /   O peration     | Website:  https://openfoam.org
    \\  /    A nd           | Version:  6
     \\/     M anipulation  |
\*---------------------------------------------------------------------------*/
FoamFile
{
    version     2.0;
    format      ascii;
    class       volVectorField;
    location    "0.04";
    object      U;
}
// * * * * * * * * * * * * * * * * * * * * * * * * * * * * * * * * * * * * * //

dimensions      [0 1 -1 0 0 0 0];

internalField   nonuniform List<vector> 
400
(
(0.000256112 -0.000252333 0)
(0.000157348 0.000107369 0)
(-0.00114677 0.000565875 0)
(-0.00345434 0.000893893 0)
(-0.00637057 0.00105974 0)
(-0.00948866 0.00107564 0)
(-0.0124421 0.000966295 0)
(-0.0149285 0.000760255 0)
(-0.0167187 0.000485853 0)
(-0.0176589 0.000170204 0)
(-0.0176699 -0.000160333 0)
(-0.0167478 -0.000479244 0)
(-0.014965 -0.000758972 0)
(-0.012473 -0.000970386 0)
(-0.00950321 -0.00108301 0)
(-0.00636523 -0.00106683 0)
(-0.00343443 -0.000897209 0)
(-0.00112429 -0.000563844 0)
(0.000171077 -0.000102053 0)
(0.000259721 0.000255381 0)
(-6.89299e-05 -0.000186619 0)
(-0.00157383 0.00161845 0)
(-0.00562897 0.00361173 0)
(-0.0116623 0.00505928 0)
(-0.0188727 0.00578776 0)
(-0.0264288 0.00580438 0)
(-0.0335325 0.00519513 0)
(-0.0394962 0.00408355 0)
(-0.043785 0.00260737 0)
(-0.0460337 0.000908456 0)
(-0.0460545 -0.00086981 0)
(-0.0438397 -0.00258204 0)
(-0.0395655 -0.00407994 0)
(-0.0335917 -0.00521342 0)
(-0.0264578 -0.00583598 0)
(-0.0188641 -0.00581826 0)
(-0.0116248 -0.00507442 0)
(-0.00558445 -0.00360492 0)
(-0.00154437 -0.00159706 0)
(-6.02356e-05 0.000201167 0)
(-0.000514878 0.00104259 0)
(-0.00365735 0.0056702 0)
(-0.0105045 0.010206 0)
(-0.0199237 0.0134545 0)
(-0.0307502 0.0150353 0)
(-0.0418705 0.0149257 0)
(-0.0522109 0.0132974 0)
(-0.0608368 0.0104289 0)
(-0.0670173 0.00664951 0)
(-0.0702516 0.0023105 0)
(-0.0702813 -0.00222685 0)
(-0.0670967 -0.00659488 0)
(-0.0609399 -0.0104218 0)
(-0.0523043 -0.0133386 0)
(-0.0419255 -0.0149969 0)
(-0.0307537 -0.0151054 0)
(-0.019884 -0.013492 0)
(-0.0104487 -0.010195 0)
(-0.00361692 -0.00562421 0)
(-0.00050201 -0.00100702 0)
(-0.000909799 0.00338989 0)
(-0.00562775 0.0121123 0)
(-0.0152179 0.0199023 0)
(-0.0278761 0.0252896 0)
(-0.0420291 0.0277548 0)
(-0.0563085 0.0272842 0)
(-0.0694304 0.0241727 0)
(-0.0802914 0.0188968 0)
(-0.0880363 0.0120264 0)
(-0.0920824 0.00417474 0)
(-0.0921288 -0.00402438 0)
(-0.0881627 -0.0119257 0)
(-0.0804626 -0.0188782 0)
(-0.0695998 -0.0242392 0)
(-0.0564328 -0.0274068 0)
(-0.042083 -0.0278815 0)
(-0.0278623 -0.0253653 0)
(-0.0151667 -0.0198956 0)
(-0.00558155 -0.0120397 0)
(-0.000893258 -0.00332643 0)
(-0.00125839 0.00674144 0)
(-0.007479 0.0208144 0)
(-0.019765 0.0325215 0)
(-0.0355959 0.0402808 0)
(-0.0529452 0.0435523 0)
(-0.0701825 0.0424166 0)
(-0.0858406 0.0373559 0)
(-0.0986938 0.0290935 0)
(-0.107812 0.0184784 0)
(-0.112571 0.00641724 0)
(-0.112649 -0.00615716 0)
(-0.108027 -0.0182963 0)
(-0.0989958 -0.029042 0)
(-0.0861614 -0.0374441 0)
(-0.0704538 -0.0426047 0)
(-0.0531188 -0.0437626 0)
(-0.0356598 -0.0404257 0)
(-0.0197486 -0.0325433 0)
(-0.00743819 -0.0207247 0)
(-0.00123975 -0.00664703 0)
(-0.00159039 0.0110378 0)
(-0.00929755 0.0317432 0)
(-0.024286 0.0480607 0)
(-0.0432824 0.0584096 0)
(-0.0637676 0.062361 0)
(-0.0838372 0.0602052 0)
(-0.10186 0.0527009 0)
(-0.116526 0.0408813 0)
(-0.126876 0.0259129 0)
(-0.132276 0.00901581 0)
(-0.132405 -0.00856914 0)
(-0.127236 -0.0255845 0)
(-0.117047 -0.0407546 0)
(-0.102439 -0.0527979 0)
(-0.0843683 -0.0604765 0)
(-0.0641642 -0.0626975 0)
(-0.0435047 -0.0586786 0)
(-0.0243542 -0.0481606 0)
(-0.00928232 -0.0316656 0)
(-0.0015732 -0.0109168 0)
(-0.00193549 0.0162819 0)
(-0.0111829 0.0449335 0)
(-0.0289483 0.0665589 0)
(-0.0511399 0.0796761 0)
(-0.0747045 0.0841166 0)
(-0.0974619 0.0805254 0)
(-0.117647 0.0700519 0)
(-0.133915 0.0541136 0)
(-0.145327 0.0342323 0)
(-0.151285 0.0119494 0)
(-0.151488 -0.0111964 0)
(-0.145899 -0.0336546 0)
(-0.134759 -0.0538403 0)
(-0.118617 -0.070129 0)
(-0.0983965 -0.0808983 0)
(-0.0754608 -0.0846393 0)
(-0.0516317 -0.080154 0)
(-0.0291732 -0.0668222 0)
(-0.0112244 -0.044927 0)
(-0.00192587 -0.0161517 0)
(-0.00232157 0.0225353 0)
(-0.0132318 0.0604932 0)
(-0.0339068 0.0880906 0)
(-0.0593223 0.104063 0)
(-0.0858433 0.108693 0)
(-0.111032 0.103165 0)
(-0.133047 0.0891593 0)
(-0.150583 0.0685636 0)
(-0.162796 0.0432859 0)
(-0.169179 0.0151795 0)
(-0.169478 -0.0139534 0)
(-0.163649 -0.0423124 0)
(-0.15186 -0.068037 0)
(-0.13455 -0.0891655 0)
(-0.112532 -0.103653 0)
(-0.0871211 -0.109477 0)
(-0.060222 -0.104869 0)
(-0.0343826 -0.0886475 0)
(-0.0133731 -0.0606582 0)
(-0.00232868 -0.0224325 0)
(-0.00277774 0.0299139 0)
(-0.0155398 0.078599 0)
(-0.039293 0.112744 0)
(-0.0679022 0.131488 0)
(-0.0970999 0.135831 0)
(-0.124244 0.127741 0)
(-0.14752 0.109602 0)
(-0.165778 0.0838591 0)
(-0.178368 0.0528259 0)
(-0.184952 0.0186323 0)
(-0.185366 -0.0167232 0)
(-0.179555 -0.0512682 0)
(-0.167577 -0.0829339 0)
(-0.149683 -0.109456 0)
(-0.126466 -0.128344 0)
(-0.099068 -0.136961 0)
(-0.0693649 -0.132775 0)
(-0.0401327 -0.113776 0)
(-0.0158362 -0.0790872 0)
(-0.00281424 -0.0299016 0)
(-0.0033421 0.0385925 0)
(-0.0182178 0.0994842 0)
(-0.04522 0.140573 0)
(-0.0768474 0.161717 0)
(-0.108162 0.16503 0)
(-0.136432 0.153587 0)
(-0.16004 0.130681 0)
(-0.178159 0.0993994 0)
(-0.190475 0.0624527 0)
(-0.19691 0.0221752 0)
(-0.197441 -0.0193475 0)
(-0.192008 -0.0600927 0)
(-0.180516 -0.0978956 0)
(-0.162932 -0.130266 0)
(-0.139485 -0.154277 0)
(-0.110962 -0.166583 0)
(-0.079023 -0.16366 0)
(-0.0465458 -0.142311 0)
(-0.0187352 -0.100506 0)
(-0.00342455 -0.0387671 0)
(-0.00407588 0.0488235 0)
(-0.0214208 0.123429 0)
(-0.0517925 0.171524 0)
(-0.0859831 0.194238 0)
(-0.1184 0.195395 0)
(-0.146443 0.179607 0)
(-0.168955 0.1513 0)
(-0.185662 0.114268 0)
(-0.196754 0.0715603 0)
(-0.202528 0.0255923 0)
(-0.203154 -0.0216214 0)
(-0.198576 -0.0681793 0)
(-0.188505 -0.111987 0)
(-0.172524 -0.150463 0)
(-0.150323 -0.18031 0)
(-0.122089 -0.197413 0)
(-0.0889777 -0.197009 0)
(-0.0537169 -0.174235 0)
(-0.0222313 -0.125255 0)
(-0.00422498 -0.0493209 0)
(-0.00508865 0.0609857 0)
(-0.0253906 0.150753 0)
(-0.0591035 0.205317 0)
(-0.0949047 0.228072 0)
(-0.126704 0.225439 0)
(-0.152434 0.204105 0)
(-0.17178 0.169847 0)
(-0.185308 0.127156 0)
(-0.193895 0.0792909 0)
(-0.198311 0.0285629 0)
(-0.198973 -0.0232947 0)
(-0.195841 -0.0747203 0)
(-0.188406 -0.123911 0)
(-0.17578 -0.168404 0)
(-0.156941 -0.204684 0)
(-0.131178 -0.227889 0)
(-0.0987179 -0.23179 0)
(-0.0616953 -0.209268 0)
(-0.0265639 -0.153698 0)
(-0.00532918 -0.0619852 0)
(-0.00658263 0.0756798 0)
(-0.0305118 0.18178 0)
(-0.0671741 0.241239 0)
(-0.102768 0.261485 0)
(-0.131183 0.252817 0)
(-0.151554 0.224604 0)
(-0.164922 0.184088 0)
(-0.172995 0.136317 0)
(-0.177483 0.0845222 0)
(-0.179682 0.0306526 0)
(-0.180276 -0.0240854 0)
(-0.179256 -0.0787162 0)
(-0.175905 -0.131991 0)
(-0.168839 -0.181851 0)
(-0.156198 -0.224845 0)
(-0.136066 -0.255543 0)
(-0.107201 -0.266145 0)
(-0.0704017 -0.246626 0)
(-0.0320972 -0.186171 0)
(-0.00694257 -0.077404 0)
(-0.00892272 0.0938953 0)
(-0.0373485 0.216721 0)
(-0.0757287 0.277739 0)
(-0.107817 0.291545 0)
(-0.128595 0.274018 0)
(-0.139431 0.237699 0)
(-0.143301 0.191156 0)
(-0.143273 0.139623 0)
(-0.141902 0.0859231 0)
(-0.140953 0.0313341 0)
(-0.141333 -0.023711 0)
(-0.143078 -0.0790485 0)
(-0.145334 -0.134245 0)
(-0.146318 -0.187988 0)
(-0.143355 -0.237323 0)
(-0.133134 -0.276691 0)
(-0.112353 -0.29692 0)
(-0.0793691 -0.284576 0)
(-0.0393406 -0.222823 0)
(-0.00942934 -0.0965989 0)
(-0.0127011 0.117233 0)
(-0.0465127 0.255283 0)
(-0.0835099 0.311689 0)
(-0.10635 0.313518 0)
(-0.113336 0.284084 0)
(-0.109404 0.239085 0)
(-0.0998957 0.187753 0)
(-0.0891691 0.134806 0)
(-0.0803682 0.0821436 0)
(-0.0754778 0.0300643 0)
(-0.0754809 -0.0219452 0)
(-0.0804631 -0.0746604 0)
(-0.0895918 -0.128642 0)
(-0.100966 -0.183657 0)
(-0.111407 -0.23781 0)
(-0.116345 -0.286204 0)
(-0.110029 -0.31907 0)
(-0.0870145 -0.319656 0)
(-0.0487784 -0.263162 0)
(-0.0133659 -0.121168 0)
(-0.0185833 0.148231 0)
(-0.0578088 0.295669 0)
(-0.086421 0.337068 0)
(-0.0906139 0.320145 0)
(-0.075756 0.276602 0)
(-0.0514989 0.223998 0)
(-0.0253278 0.170747 0)
(-0.00222465 0.120004 0)
(0.0147499 0.0721957 0)
(0.023885 0.0264437 0)
(0.0243794 -0.0187028 0)
(0.0161145 -0.064882 0)
(-0.0003357 -0.113631 0)
(-0.0234506 -0.165982 0)
(-0.05027 -0.22167 0)
(-0.0757329 -0.277589 0)
(-0.0919948 -0.325004 0)
(-0.0887524 -0.345345 0)
(-0.0599372 -0.304983 0)
(-0.019351 -0.153565 0)
(-0.0261492 0.191103 0)
(-0.0672256 0.332203 0)
(-0.0730785 0.342505 0)
(-0.0448634 0.300759 0)
(0.000297039 0.244143 0)
(0.0486223 0.188243 0)
(0.0922109 0.138256 0)
(0.127004 0.0946372 0)
(0.151134 0.0560151 0)
(0.163836 0.0204509 0)
(0.164817 -0.014135 0)
(0.153962 -0.049871 0)
(0.131332 -0.0889314 0)
(0.0974388 -0.133446 0)
(0.0539094 -0.185059 0)
(0.00465824 -0.243595 0)
(-0.042299 -0.303904 0)
(-0.0726693 -0.349743 0)
(-0.068288 -0.341949 0)
(-0.0267565 -0.19777 0)
(-0.0286876 0.248929 0)
(-0.0581863 0.348486 0)
(-0.0154083 0.308207 0)
(0.0610519 0.242114 0)
(0.14034 0.180811 0)
(0.210089 0.130861 0)
(0.266128 0.0917295 0)
(0.307616 0.0607762 0)
(0.335057 0.0352386 0)
(0.349179 0.0127459 0)
(0.350411 -0.0087527 0)
(0.338692 -0.0312118 0)
(0.313448 -0.0567446 0)
(0.273742 -0.0878662 0)
(0.218773 -0.127599 0)
(0.149031 -0.178979 0)
(0.0684178 -0.242956 0)
(-0.0107093 -0.312903 0)
(-0.0566165 -0.356734 0)
(-0.0283688 -0.256031 0)
(0.0132476 0.287614 0)
(0.0288526 0.301523 0)
(0.151498 0.213633 0)
(0.279676 0.142599 0)
(0.379903 0.0945354 0)
(0.454411 0.0626234 0)
(0.508298 0.0411709 0)
(0.545478 0.026098 0)
(0.56896 0.0146963 0)
(0.580728 0.0051909 0)
(0.581746 -0.00369959 0)
(0.572022 -0.013109 0)
(0.550593 -0.0243302 0)
(0.515414 -0.0391767 0)
(0.463298 -0.0604686 0)
(0.389989 -0.0925633 0)
(0.289897 -0.14166 0)
(0.160106 -0.214998 0)
(0.0342376 -0.305703 0)
(0.0158703 -0.292142 0)
(0.304279 0.146878 0)
(0.404863 0.127586 0)
(0.567544 0.0749636 0)
(0.684222 0.0421597 0)
(0.752011 0.0241462 0)
(0.793442 0.0141622 0)
(0.820051 0.0084595 0)
(0.837025 0.00499742 0)
(0.847193 0.00267386 0)
(0.852097 0.000888092 0)
(0.852417 -0.000727427 0)
(0.848182 -0.00247118 0)
(0.838774 -0.00470224 0)
(0.822706 -0.00800602 0)
(0.797174 -0.0134741 0)
(0.756959 -0.0231837 0)
(0.690404 -0.0410402 0)
(0.57419 -0.0741035 0)
(0.409764 -0.127675 0)
(0.3066 -0.147726 0)
)
;

boundaryField
{
    movingWall
    {
        type            fixedValue;
        value           uniform (1 0 0);
    }
    fixedWalls
    {
        type            noSlip;
    }
    frontAndBack
    {
        type            empty;
    }
}


// ************************************************************************* //
