/*--------------------------------*- C++ -*----------------------------------*\
  =========                 |
  \\      /  F ield         | OpenFOAM: The Open Source CFD Toolbox
   \\    /   O peration     | Website:  https://openfoam.org
    \\  /    A nd           | Version:  6
     \\/     M anipulation  |
\*---------------------------------------------------------------------------*/
FoamFile
{
    version     2.0;
    format      ascii;
    class       surfaceScalarField;
    location    "0.07";
    object      phi;
}
// * * * * * * * * * * * * * * * * * * * * * * * * * * * * * * * * * * * * * //

dimensions      [0 3 -1 0 0 0 0];

internalField   nonuniform List<scalar> 
760
(
-7.72627e-09
7.7262e-09
-5.71421e-08
4.94159e-08
-1.31212e-07
7.40703e-08
-2.12751e-07
8.15386e-08
-2.91728e-07
7.89769e-08
-3.62753e-07
7.10253e-08
-4.22709e-07
5.99558e-08
-4.69452e-07
4.67427e-08
-5.01252e-07
3.17997e-08
-5.16638e-07
1.53864e-08
-5.14429e-07
-2.20889e-09
-4.93839e-07
-2.05898e-08
-4.54644e-07
-3.91956e-08
-3.97428e-07
-5.72157e-08
-3.24021e-07
-7.3407e-08
-2.38286e-07
-8.5735e-08
-1.47486e-07
-9.07997e-08
-6.43871e-08
-8.30994e-08
-9.0172e-09
-5.53699e-08
-9.01723e-09
-4.98652e-08
5.75915e-08
-1.72975e-07
1.72525e-07
-3.37597e-07
2.38692e-07
-5.15646e-07
2.59588e-07
-6.87977e-07
2.51308e-07
-8.42902e-07
2.2595e-07
-9.73153e-07
1.90207e-07
-1.07374e-06
1.47326e-07
-1.14087e-06
9.89315e-08
-1.17159e-06
4.61061e-08
-1.16373e-06
-1.00651e-08
-1.11609e-06
-6.82292e-08
-1.02873e-06
-1.2656e-07
-9.03473e-07
-1.82472e-07
-7.44785e-07
-2.32095e-07
-5.61194e-07
-2.69326e-07
-3.67522e-07
-2.84471e-07
-1.87419e-07
-2.63203e-07
-5.34879e-08
-1.89301e-07
-6.25051e-08
-7.90999e-08
1.36691e-07
-2.53747e-07
3.47172e-07
-4.77216e-07
4.62162e-07
-7.14724e-07
4.97096e-07
-9.42979e-07
4.79563e-07
-1.14743e-06
4.30398e-07
-1.31878e-06
3.6156e-07
-1.4506e-06
2.79144e-07
-1.53804e-06
1.86379e-07
-1.57741e-06
8.54763e-08
-1.56605e-06
-2.14302e-08
-1.50251e-06
-1.31769e-07
-1.38695e-06
-2.42118e-07
-1.22177e-06
-3.47649e-07
-1.01269e-06
-4.41173e-07
-7.70495e-07
-5.11525e-07
-5.13597e-07
-5.41369e-07
-2.70948e-07
-5.05852e-07
-8.30962e-08
-3.77153e-07
-1.45601e-07
-9.65357e-08
2.33227e-07
-3.06802e-07
5.57439e-07
-5.71708e-07
7.27067e-07
-8.50255e-07
7.75643e-07
-1.11627e-06
7.45579e-07
-1.35374e-06
6.67863e-07
-1.55249e-06
5.60314e-07
-1.70548e-06
4.32133e-07
-1.80738e-06
2.88275e-07
-1.85402e-06
1.32119e-07
-1.8423e-06
-3.31496e-08
-1.77032e-06
-2.03746e-07
-1.63784e-06
-3.74598e-07
-1.44705e-06
-5.38438e-07
-1.20392e-06
-6.84312e-07
-9.20279e-07
-7.95162e-07
-6.16995e-07
-8.44653e-07
-3.276e-07
-7.95248e-07
-1.00828e-07
-6.03924e-07
-2.4643e-07
-1.09431e-07
3.42658e-07
-3.48612e-07
7.9662e-07
-6.4844e-07
1.02689e-06
-9.61871e-07
1.08907e-06
-1.25994e-06
1.04365e-06
-1.52549e-06
9.33416e-07
-1.74792e-06
7.82745e-07
-1.91994e-06
6.04156e-07
-2.03599e-06
4.04316e-07
-2.0915e-06
1.87635e-07
-2.08278e-06
-4.18681e-08
-2.0071e-06
-2.79428e-07
-1.86321e-06
-5.18493e-07
-1.65233e-06
-7.49314e-07
-1.37992e-06
-9.56719e-07
-1.05842e-06
-1.11666e-06
-7.11238e-07
-1.19183e-06
-3.77481e-07
-1.129e-06
-1.15289e-07
-8.66116e-07
-3.61719e-07
-1.2262e-07
4.65278e-07
-3.91618e-07
1.06562e-06
-7.27956e-07
1.36323e-06
-1.07812e-06
1.43924e-06
-1.41005e-06
1.37557e-06
-1.70544e-06
1.22881e-06
-1.95343e-06
1.03074e-06
-2.14674e-06
7.97462e-07
-2.2797e-06
5.37279e-07
-2.34741e-06
2.55342e-07
-2.34536e-06
-4.39199e-08
-2.26953e-06
-3.55255e-07
-2.11697e-06
-6.71059e-07
-1.88703e-06
-9.79246e-07
-1.5838e-06
-1.25995e-06
-1.21984e-06
-1.48063e-06
-8.21622e-07
-1.59005e-06
-4.35617e-07
-1.51501e-06
-1.32011e-07
-1.16972e-06
-4.93731e-07
-1.38863e-07
6.04141e-07
-4.43577e-07
1.37033e-06
-8.2324e-07
1.7429e-06
-1.21671e-06
1.83271e-06
-1.58832e-06
1.74718e-06
-1.91861e-06
1.5591e-06
-2.19671e-06
1.30883e-06
-2.41561e-06
1.01637e-06
-2.56985e-06
6.91516e-07
-2.65424e-06
3.39735e-07
-2.66335e-06
-3.48133e-08
-2.59138e-06
-4.27224e-07
-2.43277e-06
-8.29668e-07
-2.18378e-06
-1.22824e-06
-1.8457e-06
-1.59803e-06
-1.43026e-06
-1.89606e-06
-9.67288e-07
-2.05302e-06
-5.13075e-07
-1.96922e-06
-1.54546e-07
-1.52825e-06
-6.48277e-07
-1.59922e-07
7.64063e-07
-5.09643e-07
1.72005e-06
-9.42832e-07
2.17609e-06
-1.38886e-06
2.27874e-06
-1.80785e-06
2.16617e-06
-2.17935e-06
1.93061e-06
-2.49291e-06
1.62239e-06
-2.74241e-06
1.26586e-06
-2.92303e-06
8.72136e-07
-3.02965e-06
4.46356e-07
-3.05589e-06
-8.56781e-09
-2.99374e-06
-4.89376e-07
-2.83393e-06
-9.89478e-07
-2.5678e-06
-1.49437e-06
-2.19152e-06
-1.97431e-06
-1.71382e-06
-2.37377e-06
-1.1673e-06
-2.59954e-06
-6.2105e-07
-2.51547e-06
-1.86269e-07
-1.96303e-06
-8.34546e-07
-1.8744e-07
9.51503e-07
-5.9447e-07
2.12708e-06
-1.09406e-06
2.67567e-06
-1.6035e-06
2.78818e-06
-2.07819e-06
2.64086e-06
-2.49713e-06
2.34955e-06
-2.85117e-06
1.97642e-06
-3.13596e-06
1.55066e-06
-3.34825e-06
1.08442e-06
-3.48363e-06
5.81739e-07
-3.53512e-06
4.29139e-08
-3.49215e-06
-5.32338e-07
-3.34057e-06
-1.14106e-06
-3.0643e-06
-1.77064e-06
-2.6506e-06
-2.38801e-06
-2.10082e-06
-2.92355e-06
-1.44767e-06
-3.25269e-06
-7.75813e-07
-3.18733e-06
-2.3231e-07
-2.50653e-06
-1.06686e-06
-2.23689e-07
1.17519e-06
-7.03988e-07
2.60738e-06
-1.28555e-06
3.25723e-06
-1.8703e-06
3.37293e-06
-2.40859e-06
3.17914e-06
-2.87991e-06
2.82087e-06
-3.27783e-06
2.37434e-06
-3.60127e-06
1.87411e-06
-3.84989e-06
1.33304e-06
-4.0212e-06
7.53049e-07
-4.10846e-06
1.30174e-07
-4.09881e-06
-5.4199e-07
-3.97212e-06
-1.26774e-06
-3.70189e-06
-2.04087e-06
-3.26078e-06
-2.82913e-06
-2.63477e-06
-3.54956e-06
-1.84941e-06
-4.03805e-06
-1.00538e-06
-4.03136e-06
-3.02418e-07
-3.2095e-06
-1.36927e-06
-2.7242e-07
1.44761e-06
-8.47163e-07
3.18213e-06
-1.52935e-06
3.93942e-06
-2.20154e-06
4.04512e-06
-2.80948e-06
3.78708e-06
-3.33512e-06
3.34651e-06
-3.77697e-06
2.8162e-06
-4.13933e-06
2.23646e-06
-4.42672e-06
1.62044e-06
-4.64053e-06
9.66853e-07
-4.77597e-06
2.65615e-07
-4.81908e-06
-4.98881e-07
-4.74367e-06
-1.34315e-06
-4.5099e-06
-2.27464e-06
-4.0683e-06
-3.27072e-06
-3.37639e-06
-4.24147e-06
-2.43673e-06
-4.97772e-06
-1.35884e-06
-5.10925e-06
-4.15986e-07
-4.15235e-06
-1.78526e-06
-3.40212e-07
1.78782e-06
-1.03822e-06
3.88014e-06
-1.84279e-06
4.74398e-06
-2.61299e-06
4.81533e-06
-3.29208e-06
4.46617e-06
-3.86796e-06
3.92239e-06
-4.34728e-06
3.29552e-06
-4.74253e-06
2.6317e-06
-5.06577e-06
1.94369e-06
-5.32487e-06
1.22595e-06
-5.51989e-06
4.60629e-07
-5.6386e-06
-3.80165e-07
-5.65077e-06
-1.33099e-06
-5.50219e-06
-2.42321e-06
-5.11354e-06
-3.65937e-06
-4.39531e-06
-4.95971e-06
-3.29812e-06
-6.0749e-06
-1.91543e-06
-6.49194e-06
-6.09933e-07
-5.45785e-06
-2.39519e-06
-4.38783e-07
2.22661e-06
-1.29951e-06
4.74087e-06
-2.24945e-06
5.69392e-06
-3.12182e-06
5.68769e-06
-3.86308e-06
5.20744e-06
-4.47297e-06
4.53228e-06
-4.97076e-06
3.79331e-06
-5.38059e-06
3.04153e-06
-5.72506e-06
2.28815e-06
-6.02164e-06
1.52254e-06
-6.27906e-06
7.18044e-07
-6.49172e-06
-1.67501e-07
-6.6308e-06
-1.19191e-06
-6.63157e-06
-2.42244e-06
-6.38152e-06
-3.90942e-06
-5.72464e-06
-5.61658e-06
-4.51675e-06
-7.28279e-06
-2.77859e-06
-8.2301e-06
-9.46453e-07
-7.28998e-06
-3.34165e-06
-5.88926e-07
2.81553e-06
-1.66399e-06
5.81593e-06
-2.7752e-06
6.80513e-06
-3.73465e-06
6.64715e-06
-4.50516e-06
5.97795e-06
-5.10788e-06
5.13499e-06
-5.58072e-06
4.26616e-06
-5.96327e-06
3.42408e-06
-6.29134e-06
2.61622e-06
-6.5946e-06
1.8258e-06
-6.89404e-06
1.01748e-06
-7.19664e-06
1.35101e-07
-7.48429e-06
-9.04266e-07
-7.69371e-06
-2.21302e-06
-7.68864e-06
-3.91449e-06
-7.24028e-06
-6.06494e-06
-6.06589e-06
-8.45718e-06
-4.01794e-06
-1.02781e-05
-1.50747e-06
-9.80045e-06
-4.84912e-06
-8.26382e-07
3.64191e-06
-2.17254e-06
7.16209e-06
-3.42676e-06
8.05935e-06
-4.40661e-06
7.627e-06
-5.11922e-06
6.69056e-06
-5.62265e-06
5.63842e-06
-5.98111e-06
4.62461e-06
-6.25293e-06
3.6959e-06
-6.48794e-06
2.85123e-06
-6.72777e-06
2.06563e-06
-7.00619e-06
1.29589e-06
-7.34643e-06
4.75345e-07
-7.75135e-06
-4.99343e-07
-8.17963e-06
-1.78474e-06
-8.50258e-06
-3.59155e-06
-8.44949e-06
-6.11803e-06
-7.59262e-06
-9.31405e-06
-5.50708e-06
-1.23636e-05
-2.34428e-06
-1.29632e-05
-7.1934e-06
-1.20725e-06
4.84916e-06
-2.84857e-06
8.80341e-06
-4.11737e-06
9.32815e-06
-4.92476e-06
8.43439e-06
-5.37826e-06
7.14406e-06
-5.59562e-06
5.85579e-06
-5.67466e-06
4.70365e-06
-5.69207e-06
3.71331e-06
-5.70707e-06
2.86624e-06
-5.76661e-06
2.12517e-06
-5.91041e-06
1.43969e-06
-6.17393e-06
7.38871e-07
-6.58517e-06
-8.81028e-08
-7.14691e-06
-1.223e-06
-7.79073e-06
-2.94773e-06
-8.2913e-06
-5.61747e-06
-8.16044e-06
-9.44491e-06
-6.65527e-06
-1.38688e-05
-3.32989e-06
-1.62886e-05
-1.05233e-05
-1.80053e-06
6.64969e-06
-3.58573e-06
1.05886e-05
-4.44368e-06
1.01861e-05
-4.61923e-06
8.60994e-06
-4.41458e-06
6.9394e-06
-4.02584e-06
5.46704e-06
-3.57697e-06
4.25478e-06
-3.1475e-06
3.28384e-06
-2.78848e-06
2.50722e-06
-2.53489e-06
1.87158e-06
-2.41615e-06
1.32095e-06
-2.46538e-06
7.88101e-07
-2.72684e-06
1.73353e-07
-3.25634e-06
-6.93502e-07
-4.09741e-06
-2.10666e-06
-5.19658e-06
-4.5183e-06
-6.20616e-06
-8.43533e-06
-6.21007e-06
-1.38648e-05
-3.91213e-06
-1.85866e-05
-1.44354e-05
-2.60867e-06
9.25836e-06
-3.69243e-06
1.16724e-05
-3.04825e-06
9.54191e-06
-1.73338e-06
7.29508e-06
-2.90356e-07
5.49638e-06
1.07263e-06
4.10406e-06
2.27331e-06
3.0541e-06
3.28145e-06
2.2757e-06
4.0922e-06
1.69648e-06
4.70979e-06
1.25399e-06
5.1355e-06
8.9524e-07
5.3564e-06
5.672e-07
5.33028e-06
1.99472e-07
4.9637e-06
-3.26924e-07
4.09123e-06
-1.23419e-06
2.50044e-06
-2.92751e-06
1.31941e-07
-6.06683e-06
-2.36312e-06
-1.13698e-05
-2.96191e-06
-1.79878e-05
-1.73973e-05
-2.53047e-06
1.17888e-05
1.20707e-07
9.02119e-06
4.1137e-06
5.54892e-06
7.66066e-06
3.74811e-06
1.05408e-05
2.61624e-06
1.28282e-05
1.81667e-06
1.46188e-05
1.26347e-06
1.60049e-05
8.89621e-07
1.70665e-05
6.34865e-07
1.78653e-05
4.55235e-07
1.8441e-05
3.19469e-07
1.8807e-05
2.01237e-07
1.89363e-05
7.01841e-08
1.87309e-05
-1.21523e-07
1.79623e-05
-4.65577e-07
1.61926e-05
-1.15782e-06
1.27892e-05
-2.66345e-06
7.3808e-06
-5.96138e-06
1.40298e-06
-1.20099e-05
-1.59944e-05
1.17888e-05
2.081e-05
2.63589e-05
3.01071e-05
3.27233e-05
3.454e-05
3.58034e-05
3.66931e-05
3.73279e-05
3.77832e-05
3.81026e-05
3.83039e-05
3.83741e-05
3.82525e-05
3.7787e-05
3.66291e-05
3.39657e-05
2.80043e-05
1.59944e-05
)
;

boundaryField
{
    movingWall
    {
        type            calculated;
        value           uniform 0;
    }
    fixedWalls
    {
        type            calculated;
        value           uniform 0;
    }
    frontAndBack
    {
        type            empty;
        value           nonuniform 0();
    }
}


// ************************************************************************* //
