/*--------------------------------*- C++ -*----------------------------------*\
  =========                 |
  \\      /  F ield         | OpenFOAM: The Open Source CFD Toolbox
   \\    /   O peration     | Website:  https://openfoam.org
    \\  /    A nd           | Version:  6
     \\/     M anipulation  |
\*---------------------------------------------------------------------------*/
FoamFile
{
    version     2.0;
    format      ascii;
    class       volVectorField;
    location    "0.07";
    object      U;
}
// * * * * * * * * * * * * * * * * * * * * * * * * * * * * * * * * * * * * * //

dimensions      [0 1 -1 0 0 0 0];

internalField   nonuniform List<vector> 
400
(
(-1.31753e-05 1.19645e-05 0)
(-0.000535073 0.000353498 0)
(-0.0018194 0.000566622 0)
(-0.00343123 0.000631845 0)
(-0.00506815 0.000613039 0)
(-0.00658526 0.000552118 0)
(-0.00790578 0.0004681 0)
(-0.00898051 0.000368188 0)
(-0.009772 0.000254872 0)
(-0.0102486 0.000129549 0)
(-0.0103835 -5.95294e-06 0)
(-0.0101568 -0.000148795 0)
(-0.00955746 -0.00029475 0)
(-0.008588 -0.000437574 0)
(-0.00727048 -0.000567492 0)
(-0.00565796 -0.000667973 0)
(-0.00385365 -0.000709979 0)
(-0.00204996 -0.0006437 0)
(-0.000609591 -0.000403906 0)
(-1.97907e-05 -2.16601e-05 0)
(-0.00035633 0.000529237 0)
(-0.0019773 0.00195056 0)
(-0.00496909 0.00279717 0)
(-0.0085229 0.00306671 0)
(-0.0120973 0.0029741 0)
(-0.0154094 0.00267722 0)
(-0.0182871 0.00225907 0)
(-0.0206141 0.00175764 0)
(-0.0223053 0.00119051 0)
(-0.0232941 0.000569141 0)
(-0.0235292 -9.45039e-05 0)
(-0.0229759 -0.000784793 0)
(-0.0216211 -0.00148017 0)
(-0.0194811 -0.00214985 0)
(-0.0166146 -0.0027473 0)
(-0.0131443 -0.00319785 0)
(-0.0092867 -0.00337977 0)
(-0.00540396 -0.00310614 0)
(-0.00213669 -0.00215972 0)
(-0.000380234 -0.000585274 0)
(-0.000601983 0.00184857 0)
(-0.00299992 0.00499089 0)
(-0.00713984 0.00675865 0)
(-0.011918 0.00731217 0)
(-0.0166657 0.00707045 0)
(-0.0210437 0.00635394 0)
(-0.0248359 0.00534464 0)
(-0.0278921 0.00413359 0)
(-0.030103 0.00276791 0)
(-0.0313844 0.00127963 0)
(-0.0316725 -0.000299785 0)
(-0.0309253 -0.00193187 0)
(-0.0291279 -0.00356522 0)
(-0.0263024 -0.00512749 0)
(-0.0225245 -0.00651108 0)
(-0.0179506 -0.0075481 0)
(-0.0128509 -0.00797578 0)
(-0.00766362 -0.00741393 0)
(-0.00318401 -0.00544062 0)
(-0.000626083 -0.00198175 0)
(-0.00074081 0.00363742 0)
(-0.00364868 0.00890775 0)
(-0.00859535 0.0117242 0)
(-0.0142278 0.0125586 0)
(-0.0197751 0.0120961 0)
(-0.0248664 0.0108473 0)
(-0.0292664 0.00910656 0)
(-0.032811 0.00702565 0)
(-0.0353801 0.00468613 0)
(-0.0368806 0.00214409 0)
(-0.0372397 -0.000546841 0)
(-0.0364063 -0.00332261 0)
(-0.0343565 -0.00609811 0)
(-0.0311053 -0.00875297 0)
(-0.0267276 -0.0111078 0)
(-0.0213911 -0.0128848 0)
(-0.0153959 -0.013655 0)
(-0.00923986 -0.0128067 0)
(-0.00386221 -0.00964778 0)
(-0.000762713 -0.00385143 0)
(-0.000837406 0.0057053 0)
(-0.00414456 0.0134155 0)
(-0.00976244 0.0173843 0)
(-0.0161197 0.0184902 0)
(-0.0223461 0.017748 0)
(-0.028042 0.0158869 0)
(-0.0329611 0.0133248 0)
(-0.0369338 0.0102779 0)
(-0.039836 0.00686239 0)
(-0.0415686 0.00315715 0)
(-0.0420495 -0.000764406 0)
(-0.0412129 -0.00481526 0)
(-0.0390162 -0.00887797 0)
(-0.0354532 -0.0127823 0)
(-0.0305821 -0.0162692 0)
(-0.0245682 -0.0189337 0)
(-0.0177368 -0.0201503 0)
(-0.0106575 -0.0190276 0)
(-0.00443848 -0.0145328 0)
(-0.00086557 -0.00601425 0)
(-0.000935775 0.00801858 0)
(-0.00465271 0.0184797 0)
(-0.0109675 0.0237238 0)
(-0.0180857 0.025104 0)
(-0.0250283 0.024028 0)
(-0.0313639 0.021479 0)
(-0.0368373 0.0180137 0)
(-0.0412784 0.0139166 0)
(-0.0445632 0.00933793 0)
(-0.0465893 0.0043747 0)
(-0.047263 -0.000886149 0)
(-0.0464982 -0.00634167 0)
(-0.0442213 -0.0118477 0)
(-0.0403886 -0.0171849 0)
(-0.0350222 -0.0220051 0)
(-0.0282701 -0.0257503 0)
(-0.0204805 -0.0275514 0)
(-0.012317 -0.0261677 0)
(-0.00510751 -0.0201451 0)
(-0.000983171 -0.00846971 0)
(-0.00105967 0.0106178 0)
(-0.00527284 0.024183 0)
(-0.0124175 0.0308449 0)
(-0.0204357 0.0325042 0)
(-0.0282198 0.0310326 0)
(-0.0353031 0.0277107 0)
(-0.0414253 0.0232534 0)
(-0.0464217 0.0180198 0)
(-0.0501749 0.0121915 0)
(-0.0525827 0.00587708 0)
(-0.0535406 -0.000834021 0)
(-0.0529355 -0.00783558 0)
(-0.0506494 -0.0149685 0)
(-0.0465793 -0.0219697 0)
(-0.0406834 -0.0283927 0)
(-0.0330652 -0.033492 0)
(-0.0240848 -0.036085 0)
(-0.0145218 -0.0344789 0)
(-0.00600581 -0.0266898 0)
(-0.00114371 -0.0113039 0)
(-0.00122375 0.0135837 0)
(-0.00607055 0.0306812 0)
(-0.0142505 0.0389227 0)
(-0.0233708 0.0408547 0)
(-0.0321671 0.0389036 0)
(-0.0401365 0.0347021 0)
(-0.0470217 0.0291487 0)
(-0.0526745 0.0226847 0)
(-0.0569951 0.0155203 0)
(-0.0598903 0.00776461 0)
(-0.0612483 -0.00050625 0)
(-0.0609255 -0.00920358 0)
(-0.0587447 -0.018175 0)
(-0.054514 -0.0271293 0)
(-0.0480849 -0.0355177 0)
(-0.0394674 -0.0423654 0)
(-0.0289963 -0.0460781 0)
(-0.0175808 -0.0443537 0)
(-0.00726962 -0.0345074 0)
(-0.00137223 -0.0146637 0)
(-0.0014422 0.0170281 0)
(-0.00710675 0.0381896 0)
(-0.0165893 0.0481891 0)
(-0.0270591 0.0503599 0)
(-0.0370597 0.0478056 0)
(-0.046057 0.0425834 0)
(-0.0538131 0.0358082 0)
(-0.0602149 0.0280124 0)
(-0.0651991 0.0194305 0)
(-0.0686975 0.0101583 0)
(-0.0706017 0.000235237 0)
(-0.070739 -0.0102988 0)
(-0.0688593 -0.0213353 0)
(-0.0646462 -0.0325889 0)
(-0.0577806 -0.0434219 0)
(-0.0480919 -0.0525888 0)
(-0.0358045 -0.0579508 0)
(-0.0219335 -0.0563523 0)
(-0.00910436 -0.0441139 0)
(-0.00170833 -0.0187724 0)
(-0.00173614 0.0210996 0)
(-0.00846317 0.046987 0)
(-0.019585 0.0589278 0)
(-0.0316913 0.0612503 0)
(-0.0430922 0.0579062 0)
(-0.0532394 0.0514728 0)
(-0.0619427 0.0433223 0)
(-0.0691544 0.0340891 0)
(-0.0748762 0.0240259 0)
(-0.0790911 0.0131972 0)
(-0.081716 0.00157557 0)
(-0.0825615 -0.0108925 0)
(-0.0812992 -0.0242012 0)
(-0.0774506 -0.0381372 0)
(-0.0704408 -0.0520232 0)
(-0.0597772 -0.0643257 0)
(-0.0453981 -0.0721986 0)
(-0.0283082 -0.0712569 0)
(-0.0118857 -0.0563005 0)
(-0.0022338 -0.0239887 0)
(-0.002143 0.0260036 0)
(-0.0102701 0.0574377 0)
(-0.0234586 0.0714807 0)
(-0.0375224 0.0737716 0)
(-0.0504999 0.0693536 0)
(-0.0618662 0.0614491 0)
(-0.0715259 0.0517356 0)
(-0.0795407 0.04096 0)
(-0.0860181 0.0293858 0)
(-0.0910315 0.0170252 0)
(-0.0945601 0.0037476 0)
(-0.0964296 -0.0106512 0)
(-0.0962487 -0.0263535 0)
(-0.0933537 -0.0433323 0)
(-0.0868177 -0.0609904 0)
(-0.0756203 -0.0775598 0)
(-0.0590935 -0.089331 0)
(-0.0379156 -0.090141 0)
(-0.0163226 -0.0723191 0)
(-0.00312649 -0.0309423 0)
(-0.00273267 0.0320442 0)
(-0.0127461 0.0700328 0)
(-0.0285454 0.0862553 0)
(-0.0449026 0.088164 0)
(-0.0595638 0.0822406 0)
(-0.0721056 0.072509 0)
(-0.0826012 0.0610014 0)
(-0.0912813 0.0485846 0)
(-0.0984127 0.035522 0)
(-0.104211 0.0217521 0)
(-0.108773 0.00700415 0)
(-0.111998 -0.0091411 0)
(-0.113487 -0.0271645 0)
(-0.112413 -0.0474001 0)
(-0.107426 -0.069564 0)
(-0.0967295 -0.0918655 0)
(-0.078548 -0.109688 0)
(-0.0525668 -0.114382 0)
(-0.0236783 -0.0941602 0)
(-0.00475815 -0.0408107 0)
(-0.00363807 0.0397025 0)
(-0.0162603 0.0854492 0)
(-0.0353411 0.103717 0)
(-0.0542678 0.104607 0)
(-0.0705364 0.0965292 0)
(-0.0839746 0.0844846 0)
(-0.0949338 0.0708983 0)
(-0.103891 0.0567509 0)
(-0.111333 0.0422901 0)
(-0.117677 0.0273611 0)
(-0.123204 0.0115241 0)
(-0.127975 -0.00591137 0)
(-0.131691 -0.0258429 0)
(-0.13347 -0.0491946 0)
(-0.131574 -0.0763769 0)
(-0.123238 -0.10606 0)
(-0.10495 -0.132997 0)
(-0.0742902 -0.145383 0)
(-0.0358788 -0.12476 0)
(-0.00782885 -0.0557722 0)
(-0.00511158 0.0497806 0)
(-0.0214189 0.104612 0)
(-0.0445019 0.124312 0)
(-0.0659856 0.12307 0)
(-0.0833249 0.111878 0)
(-0.0968764 0.096872 0)
(-0.107428 0.0808624 0)
(-0.115793 0.0649101 0)
(-0.122739 0.0492179 0)
(-0.128932 0.0335196 0)
(-0.134893 0.0171958 0)
(-0.140936 -0.000739852 0)
(-0.147015 -0.0216875 0)
(-0.152417 -0.0473972 0)
(-0.155266 -0.0794762 0)
(-0.151909 -0.117877 0)
(-0.136634 -0.157598 0)
(-0.103557 -0.183578 0)
(-0.054949 -0.167584 0)
(-0.0134266 -0.0794548 0)
(-0.00761967 0.0636517 0)
(-0.0291471 0.128691 0)
(-0.0566322 0.148193 0)
(-0.0797293 0.142929 0)
(-0.0964879 0.127254 0)
(-0.108297 0.108466 0)
(-0.116597 0.0896573 0)
(-0.122632 0.0718755 0)
(-0.127481 0.0552155 0)
(-0.132056 0.0392722 0)
(-0.137113 0.0232535 0)
(-0.14325 0.00590726 0)
(-0.150798 -0.0146652 0)
(-0.159523 -0.0411747 0)
(-0.167949 -0.0769021 0)
(-0.172201 -0.124136 0)
(-0.164682 -0.179748 0)
(-0.135224 -0.226755 0)
(-0.0806618 -0.224996 0)
(-0.0225957 -0.117044 0)
(-0.0119607 0.0836987 0)
(-0.0405955 0.158787 0)
(-0.0713249 0.174377 0)
(-0.0925267 0.162021 0)
(-0.104544 0.140059 0)
(-0.110647 0.116637 0)
(-0.113162 0.0948124 0)
(-0.113794 0.0754001 0)
(-0.113869 0.058247 0)
(-0.114423 0.0427434 0)
(-0.116301 0.0279364 0)
(-0.120257 0.0123992 0)
(-0.126979 -0.00611134 0)
(-0.136931 -0.0311387 0)
(-0.149772 -0.0677797 0)
(-0.16282 -0.121542 0)
(-0.16843 -0.193411 0)
(-0.153185 -0.26811 0)
(-0.105531 -0.295147 0)
(-0.034374 -0.175003 0)
(-0.0192425 0.11427 0)
(-0.0561741 0.194385 0)
(-0.0837497 0.198116 0)
(-0.0934002 0.174218 0)
(-0.0917686 0.144341 0)
(-0.0849539 0.116186 0)
(-0.0760672 0.0920015 0)
(-0.0669744 0.0719283 0)
(-0.058899 0.0553228 0)
(-0.0526435 0.0412701 0)
(-0.0488081 0.0286785 0)
(-0.0479904 0.0161044 0)
(-0.050966 0.00130709 0)
(-0.0588258 -0.019514 0)
(-0.0728466 -0.052614 0)
(-0.0932869 -0.106663 0)
(-0.115969 -0.1889 0)
(-0.128297 -0.292066 0)
(-0.109473 -0.364354 0)
(-0.0412719 -0.257205 0)
(-0.0294627 0.163308 0)
(-0.0703888 0.228 0)
(-0.0728872 0.203901 0)
(-0.0499608 0.16495 0)
(-0.020381 0.128927 0)
(0.00845853 0.0990813 0)
(0.0343747 0.0755813 0)
(0.056539 0.0574876 0)
(0.0747095 0.0435356 0)
(0.0889487 0.0325188 0)
(0.0993593 0.0233169 0)
(0.105862 0.014701 0)
(0.107943 0.0049228 0)
(0.104279 -0.00905454 0)
(0.0922333 -0.0328299 0)
(0.0678268 -0.0760447 0)
(0.0279965 -0.152122 0)
(-0.0231255 -0.269012 0)
(-0.0595079 -0.391869 0)
(-0.0231481 -0.342946 0)
(-0.0231711 0.229486 0)
(-0.0354546 0.231084 0)
(0.0381121 0.165564 0)
(0.119012 0.118835 0)
(0.184759 0.0861389 0)
(0.236245 0.0621781 0)
(0.2766 0.0448627 0)
(0.307988 0.0325838 0)
(0.332132 0.023857 0)
(0.350465 0.0174977 0)
(0.36402 0.0125948 0)
(0.373337 0.00834127 0)
(0.378304 0.00378007 0)
(0.377746 -0.00262703 0)
(0.368589 -0.0138343 0)
(0.344497 -0.0359228 0)
(0.294804 -0.0817767 0)
(0.206261 -0.17335 0)
(0.0941229 -0.311875 0)
(0.0644865 -0.347366 0)
(0.269153 0.136095 0)
(0.336788 0.121259 0)
(0.464687 0.0799638 0)
(0.566941 0.0524626 0)
(0.632737 0.0350208 0)
(0.675812 0.023356 0)
(0.70551 0.0155392 0)
(0.726419 0.0104059 0)
(0.741253 0.00706607 0)
(0.751855 0.00486937 0)
(0.759396 0.00336204 0)
(0.764468 0.00220738 0)
(0.7671 0.00109465 0)
(0.766544 -0.000377574 0)
(0.760704 -0.00290716 0)
(0.744673 -0.00791911 0)
(0.708329 -0.0188919 0)
(0.629126 -0.0447874 0)
(0.473684 -0.104496 0)
(0.347895 -0.15006 0)
)
;

boundaryField
{
    movingWall
    {
        type            fixedValue;
        value           uniform (1 0 0);
    }
    fixedWalls
    {
        type            noSlip;
    }
    frontAndBack
    {
        type            empty;
    }
}


// ************************************************************************* //
