/*--------------------------------*- C++ -*----------------------------------*\
  =========                 |
  \\      /  F ield         | OpenFOAM: The Open Source CFD Toolbox
   \\    /   O peration     | Website:  https://openfoam.org
    \\  /    A nd           | Version:  6
     \\/     M anipulation  |
\*---------------------------------------------------------------------------*/
FoamFile
{
    version     2.0;
    format      ascii;
    class       surfaceScalarField;
    location    "0.005";
    object      phi;
}
// * * * * * * * * * * * * * * * * * * * * * * * * * * * * * * * * * * * * * //

dimensions      [0 3 -1 0 0 0 0];

internalField   nonuniform List<scalar> 
760
(
-2.02448e-08
2.02447e-08
-8.23205e-08
6.20757e-08
-1.61121e-07
7.8801e-08
-2.4042e-07
7.92986e-08
-3.1315e-07
7.27301e-08
-3.75897e-07
6.2747e-08
-4.2662e-07
5.07228e-08
-4.63932e-07
3.73119e-08
-4.86881e-07
2.29495e-08
-4.94888e-07
8.00618e-09
-4.87724e-07
-7.16381e-09
-4.6552e-07
-2.22037e-08
-4.28774e-07
-3.67456e-08
-3.78374e-07
-5.04001e-08
-3.15666e-07
-6.27082e-08
-2.42688e-07
-7.29787e-08
-1.62901e-07
-7.97868e-08
-8.34607e-08
-7.94401e-08
-2.04644e-08
-6.29963e-08
-2.04643e-08
-6.32608e-08
8.35055e-08
-1.92068e-07
1.90883e-07
-3.45768e-07
2.325e-07
-5.00243e-07
2.33773e-07
-6.42537e-07
2.15025e-07
-7.65627e-07
1.85837e-07
-8.65226e-07
1.50322e-07
-9.38465e-07
1.10551e-07
-9.8342e-07
6.79049e-08
-9.98948e-07
2.35337e-08
-9.8462e-07
-2.14915e-08
-9.40714e-07
-6.611e-08
-8.68237e-07
-1.09223e-07
-7.69007e-07
-1.4963e-07
-6.45835e-07
-1.8588e-07
-5.03011e-07
-2.15802e-07
-3.4764e-07
-2.35158e-07
-1.92837e-07
-2.34243e-07
-6.32337e-08
-1.92599e-07
-8.36982e-08
-8.41981e-08
1.67704e-07
-2.48447e-07
3.55132e-07
-4.403e-07
4.24353e-07
-6.31497e-07
4.2497e-07
-8.07086e-07
3.90613e-07
-9.5874e-07
3.37491e-07
-1.0813e-06
2.72883e-07
-1.17132e-06
2.00574e-07
-1.22652e-06
1.23105e-07
-1.24556e-06
4.25644e-08
-1.22792e-06
-3.91295e-08
-1.17393e-06
-1.20093e-07
-1.08479e-06
-1.98364e-07
-9.62655e-07
-2.71769e-07
-8.10902e-07
-3.37633e-07
-6.34713e-07
-3.91991e-07
-4.42537e-07
-4.27334e-07
-2.49588e-07
-4.27192e-07
-8.45849e-08
-3.57602e-07
-1.68283e-07
-9.54532e-08
2.63157e-07
-2.82299e-07
5.41978e-07
-4.99329e-07
6.41384e-07
-7.14343e-07
6.39984e-07
-9.10928e-07
5.87199e-07
-1.08013e-06
5.06696e-07
-1.2165e-06
4.09251e-07
-1.31646e-06
3.00535e-07
-1.3777e-06
1.84339e-07
-1.39885e-06
6.37207e-08
-1.37942e-06
-5.85599e-08
-1.3197e-06
-1.79813e-07
-1.22085e-06
-2.97217e-07
-1.08503e-06
-4.07584e-07
-9.15745e-07
-5.06923e-07
-7.18455e-07
-5.89281e-07
-5.02266e-07
-6.43524e-07
-2.83896e-07
-6.45561e-07
-9.59875e-08
-5.45511e-07
-2.6427e-07
-1.05689e-07
3.68846e-07
-3.13887e-07
7.50176e-07
-5.55297e-07
8.82793e-07
-7.93394e-07
8.78082e-07
-1.01e-06
8.03805e-07
-1.19555e-06
6.92244e-07
-1.34447e-06
5.58173e-07
-1.4533e-06
4.09368e-07
-1.51989e-06
2.50927e-07
-1.54301e-06
8.68407e-08
-1.52218e-06
-7.93872e-08
-1.45762e-06
-2.44377e-07
-1.35029e-06
-4.04543e-07
-1.20216e-06
-5.55721e-07
-1.01655e-06
-6.92527e-07
-7.99052e-07
-8.0678e-07
-5.59402e-07
-8.83174e-07
-3.16169e-07
-8.88794e-07
-1.06437e-07
-7.55242e-07
-3.70708e-07
-1.18569e-07
4.87415e-07
-3.52759e-07
9.84366e-07
-6.23699e-07
1.15373e-06
-8.89573e-07
1.14396e-06
-1.12993e-06
1.04416e-06
-1.33449e-06
8.96806e-07
-1.49772e-06
7.21404e-07
-1.61649e-06
5.28137e-07
-1.68903e-06
3.23467e-07
-1.71439e-06
1.12205e-07
-1.69218e-06
-1.01605e-07
-1.62243e-06
-3.14121e-07
-1.50578e-06
-5.21196e-07
-1.3437e-06
-7.17796e-07
-1.13915e-06
-8.97082e-07
-8.97621e-07
-1.04831e-06
-6.29605e-07
-1.15119e-06
-3.56075e-07
-1.16232e-06
-1.1964e-07
-9.91677e-07
-4.90348e-07
-1.3578e-07
6.23194e-07
-4.03821e-07
1.25241e-06
-7.1263e-07
1.46254e-06
-1.01353e-06
1.44486e-06
-1.28321e-06
1.31384e-06
-1.51068e-06
1.12428e-06
-1.69074e-06
9.01458e-07
-1.82095e-06
6.5835e-07
-1.90027e-06
4.02787e-07
-1.92825e-06
1.40183e-07
-1.90463e-06
-1.25228e-07
-1.82921e-06
-3.89539e-07
-1.70201e-06
-6.48396e-07
-1.52368e-06
-8.96123e-07
-1.29635e-06
-1.12442e-06
-1.02512e-06
-1.31953e-06
-7.21223e-07
-1.45509e-06
-4.08676e-07
-1.47487e-06
-1.37327e-07
-1.26303e-06
-6.27674e-07
-1.58722e-07
7.81916e-07
-4.71132e-07
1.56482e-06
-8.28603e-07
1.82001e-06
-1.17338e-06
1.78963e-06
-1.47865e-06
1.61911e-06
-1.73298e-06
1.37861e-06
-1.93206e-06
1.10054e-06
-2.07481e-06
8.011e-07
-2.16143e-06
4.89408e-07
-2.19231e-06
1.71059e-07
-2.16744e-06
-1.50096e-07
-2.08626e-06
-4.70718e-07
-1.94781e-06
-7.86844e-07
-1.75134e-06
-1.0926e-06
-1.49743e-06
-1.37832e-06
-1.19016e-06
-1.6268e-06
-8.41206e-07
-1.80405e-06
-4.7831e-07
-1.83777e-06
-1.60988e-07
-1.58035e-06
-7.88662e-07
-1.89305e-07
9.71221e-07
-5.59935e-07
1.93545e-06
-9.796e-07
2.23968e-06
-1.37842e-06
2.18845e-06
-1.7256e-06
1.96629e-06
-2.00992e-06
1.66293e-06
-2.22908e-06
1.31969e-06
-2.38438e-06
9.56408e-07
-2.4781e-06
5.83121e-07
-2.51193e-06
2.04896e-07
-2.48633e-06
-1.75704e-07
-2.40016e-06
-5.56883e-07
-2.251e-06
-9.36006e-07
-2.03581e-06
-1.30779e-06
-1.75251e-06
-1.66162e-06
-1.40288e-06
-1.97642e-06
-9.98271e-07
-2.20866e-06
-5.70709e-07
-2.26533e-06
-1.92705e-07
-1.95835e-06
-9.81367e-07
-2.30652e-07
1.20187e-06
-6.78317e-07
2.38311e-06
-1.17726e-06
2.73862e-06
-1.64145e-06
2.65265e-06
-2.03601e-06
2.36085e-06
-2.35154e-06
1.97845e-06
-2.58961e-06
1.55777e-06
-2.75559e-06
1.12238e-06
-2.85494e-06
6.82468e-07
-2.8914e-06
2.41357e-07
-2.86607e-06
-2.0103e-07
-2.77711e-06
-6.45847e-07
-2.61989e-06
-1.09322e-06
-2.38789e-06
-1.53978e-06
-2.07458e-06
-1.97494e-06
-1.67732e-06
-2.37368e-06
-1.20528e-06
-2.6807e-06
-6.94835e-07
-2.77578e-06
-2.35932e-07
-2.41726e-06
-1.2173e-06
-2.88246e-07
1.49012e-06
-8.39532e-07
2.9344e-06
-1.43943e-06
3.33852e-06
-1.98076e-06
3.19398e-06
-2.4257e-06
2.80579e-06
-2.76986e-06
2.32262e-06
-3.0219e-06
1.8098e-06
-3.19357e-06
1.29406e-06
-3.29514e-06
7.84035e-07
-3.33324e-06
2.79457e-07
-3.30996e-06
-2.24312e-07
-3.22249e-06
-7.33315e-07
-3.06324e-06
-1.25247e-06
-2.82059e-06
-1.78244e-06
-2.48093e-06
-2.31459e-06
-2.0337e-06
-2.82092e-06
-1.48215e-06
-3.23224e-06
-8.65536e-07
-3.39239e-06
-2.968e-07
-2.98599e-06
-1.5141e-06
-3.72192e-07
1.86231e-06
-1.06595e-06
3.62816e-06
-1.79384e-06
4.06641e-06
-2.42234e-06
3.82247e-06
-2.91494e-06
3.29838e-06
-3.27832e-06
2.68601e-06
-3.53313e-06
2.06461e-06
-3.7008e-06
1.46173e-06
-3.79827e-06
8.81506e-07
-3.83603e-06
3.17214e-07
-3.8175e-06
-2.42844e-07
-3.73879e-06
-8.12028e-07
-3.58854e-06
-1.40271e-06
-3.3482e-06
-2.02279e-06
-2.99365e-06
-2.66914e-06
-2.5008e-06
-3.31376e-06
-1.85997e-06
-3.87307e-06
-1.10812e-06
-4.14425e-06
-3.86763e-07
-3.70735e-06
-1.90086e-06
-5.0174e-07
2.36405e-06
-1.39547e-06
4.52188e-06
-2.28238e-06
4.95333e-06
-3.00073e-06
4.54082e-06
-3.52624e-06
3.8239e-06
-3.88744e-06
3.0472e-06
-4.12409e-06
2.30126e-06
-4.27122e-06
1.60886e-06
-4.35424e-06
9.64518e-07
-4.3882e-06
3.51179e-07
-4.37819e-06
-2.52856e-07
-4.3193e-06
-8.70921e-07
-4.19603e-06
-1.52598e-06
-3.98135e-06
-2.23746e-06
-3.63668e-06
-3.01381e-06
-3.1165e-06
-3.83395e-06
-2.38568e-06
-4.60388e-06
-1.46571e-06
-5.06422e-06
-5.27928e-07
-4.64513e-06
-2.42879e-06
-7.13503e-07
3.07755e-06
-1.88935e-06
5.69773e-06
-2.96127e-06
6.02525e-06
-3.75106e-06
5.3306e-06
-4.27094e-06
4.34378e-06
-4.58855e-06
3.36481e-06
-4.77176e-06
2.48447e-06
-4.87257e-06
1.70967e-06
-4.92554e-06
1.01749e-06
-4.95022e-06
3.75861e-07
-4.95335e-06
-2.49726e-07
-4.92951e-06
-8.94757e-07
-4.85981e-06
-1.59568e-06
-4.70868e-06
-2.3886e-06
-4.4201e-06
-3.3024e-06
-3.91767e-06
-4.33638e-06
-3.12113e-06
-5.40042e-06
-2.0076e-06
-6.17775e-06
-7.6248e-07
-5.89025e-06
-3.19127e-06
-1.07193e-06
4.14949e-06
-2.63011e-06
7.25591e-06
-3.87656e-06
7.27171e-06
-4.66761e-06
6.12165e-06
-5.09885e-06
4.77502e-06
-5.3003e-06
3.56626e-06
-5.37539e-06
2.55956e-06
-5.39301e-06
1.7273e-06
-5.39449e-06
1.01897e-06
-5.40174e-06
3.83107e-07
-5.42251e-06
-2.28959e-07
-5.45203e-06
-8.65234e-07
-5.47086e-06
-1.57685e-06
-5.43854e-06
-2.42092e-06
-5.28321e-06
-3.45773e-06
-4.89105e-06
-4.72853e-06
-4.11146e-06
-6.18001e-06
-2.82309e-06
-7.46612e-06
-1.16314e-06
-7.5502e-06
-4.35441e-06
-1.66392e-06
5.8134e-06
-3.6606e-06
9.25258e-06
-4.94942e-06
8.56053e-06
-5.55979e-06
6.73202e-06
-5.74427e-06
4.95949e-06
-5.71429e-06
3.53629e-06
-5.60519e-06
2.45046e-06
-5.493e-06
1.6151e-06
-5.41698e-06
9.42954e-07
-5.39583e-06
3.61955e-07
-5.43637e-06
-1.88417e-07
-5.53634e-06
-7.65265e-07
-5.68171e-06
-1.43148e-06
-5.83734e-06
-2.26528e-06
-5.92829e-06
-3.36678e-06
-5.8112e-06
-4.84562e-06
-5.24847e-06
-6.74274e-06
-3.941e-06
-8.77359e-06
-1.81982e-06
-9.67138e-06
-6.17423e-06
-2.51144e-06
8.32484e-06
-4.72604e-06
1.14672e-05
-5.61407e-06
9.44855e-06
-5.65869e-06
6.77665e-06
-5.33708e-06
4.63789e-06
-4.92122e-06
3.12043e-06
-4.54252e-06
2.07176e-06
-4.25537e-06
1.32794e-06
-4.0785e-06
7.66088e-07
-4.01736e-06
3.00818e-07
-4.07421e-06
-1.31566e-07
-4.25131e-06
-5.88171e-07
-4.54882e-06
-1.13396e-06
-4.95543e-06
-1.85868e-06
-5.42475e-06
-2.89746e-06
-5.82752e-06
-4.44285e-06
-5.87282e-06
-6.69745e-06
-5.02628e-06
-9.62014e-06
-2.72159e-06
-1.19761e-05
-8.89582e-06
-3.23138e-06
1.15562e-05
-4.52445e-06
1.27603e-05
-3.95242e-06
8.87652e-06
-2.79877e-06
5.623e-06
-1.66476e-06
3.50388e-06
-7.3819e-07
2.19386e-06
-5.01142e-08
1.38368e-06
4.18883e-07
8.58944e-07
6.95986e-07
4.88985e-07
8.00404e-07
1.964e-07
7.38613e-07
-6.97752e-08
5.02993e-07
-3.52551e-07
7.14996e-08
-7.02467e-07
-5.89818e-07
-1.19736e-06
-1.51334e-06
-1.97394e-06
-2.685e-06
-3.27119e-06
-3.92406e-06
-5.45838e-06
-4.60272e-06
-8.94148e-06
-3.35653e-06
-1.32223e-05
-1.22524e-05
-1.70192e-06
1.32581e-05
1.1683e-06
9.89004e-06
4.75597e-06
5.28886e-06
7.55058e-06
2.82838e-06
9.49036e-06
1.5641e-06
1.07897e-05
8.94558e-07
1.16437e-05
5.29623e-07
1.21859e-05
3.16777e-07
1.24972e-05
1.77713e-07
1.26208e-05
7.27945e-08
1.25716e-05
-2.06223e-08
1.23393e-05
-1.20205e-07
1.18842e-05
-2.47399e-07
1.11262e-05
-4.39375e-07
9.92472e-06
-7.72444e-07
8.06286e-06
-1.40934e-06
5.29439e-06
-2.68991e-06
1.64935e-06
-5.29644e-06
-1.41095e-06
-1.0162e-05
-1.36633e-05
1.32581e-05
2.31482e-05
2.8437e-05
3.12654e-05
3.28295e-05
3.37241e-05
3.42537e-05
3.45705e-05
3.47482e-05
3.4821e-05
3.48004e-05
3.46802e-05
3.44328e-05
3.39934e-05
3.32209e-05
3.18116e-05
2.91217e-05
2.38253e-05
1.36633e-05
)
;

boundaryField
{
    movingWall
    {
        type            calculated;
        value           uniform 0;
    }
    fixedWalls
    {
        type            calculated;
        value           uniform 0;
    }
    frontAndBack
    {
        type            empty;
        value           nonuniform 0();
    }
}


// ************************************************************************* //
