/*--------------------------------*- C++ -*----------------------------------*\
  =========                 |
  \\      /  F ield         | OpenFOAM: The Open Source CFD Toolbox
   \\    /   O peration     | Website:  https://openfoam.org
    \\  /    A nd           | Version:  6
     \\/     M anipulation  |
\*---------------------------------------------------------------------------*/
FoamFile
{
    version     2.0;
    format      ascii;
    class       volVectorField;
    location    "0.005";
    object      U;
}
// * * * * * * * * * * * * * * * * * * * * * * * * * * * * * * * * * * * * * //

dimensions      [0 1 -1 0 0 0 0];

internalField   nonuniform List<vector> 
400
(
(-0.000161302 0.000140706 0)
(-0.000944553 0.000504639 0)
(-0.00240268 0.000660149 0)
(-0.00402491 0.000667424 0)
(-0.00556635 0.000611707 0)
(-0.00693128 0.000527346 0)
(-0.00807235 0.000426239 0)
(-0.0089571 0.000313672 0)
(-0.00956258 0.000193153 0)
(-0.00987361 6.77212e-05 0)
(-0.00988216 -5.9672e-05 0)
(-0.00958731 -0.000186024 0)
(-0.00899524 -0.000308248 0)
(-0.00811958 -0.000423151 0)
(-0.00698226 -0.000527071 0)
(-0.00561565 -0.000614497 0)
(-0.00406727 -0.000673447 0)
(-0.0024283 -0.000670446 0)
(-0.000955074 -0.000523767 0)
(-0.000153813 -0.000152094 0)
(-0.000538034 0.000939133 0)
(-0.00238922 0.00232949 0)
(-0.00531374 0.00288646 0)
(-0.00848843 0.0029075 0)
(-0.0114979 0.00267276 0)
(-0.0141728 0.002309 0)
(-0.0164138 0.0018677 0)
(-0.018152 0.001374 0)
(-0.0193402 0.000844633 0)
(-0.0199482 0.000293693 0)
(-0.0199604 -0.000265534 0)
(-0.0193754 -0.000819784 0)
(-0.0182058 -0.00135535 0)
(-0.0164793 -0.0018575 0)
(-0.0142412 -0.00230866 0)
(-0.0115602 -0.00268251 0)
(-0.00853632 -0.00292618 0)
(-0.00533859 -0.00291224 0)
(-0.00238875 -0.00236207 0)
(-0.000526839 -0.000945591 0)
(-0.000714426 0.00244201 0)
(-0.00311737 0.00532461 0)
(-0.00681245 0.00641368 0)
(-0.01076 0.00643692 0)
(-0.0144777 0.00592085 0)
(-0.0177757 0.00511802 0)
(-0.0205353 0.00414003 0)
(-0.0226731 0.00304429 0)
(-0.024133 0.00186927 0)
(-0.0248791 0.000646843 0)
(-0.0248932 -0.000593445 0)
(-0.0241738 -0.00182246 0)
(-0.0227356 -0.00300996 0)
(-0.0206111 -0.00412273 0)
(-0.0178548 -0.00512032 0)
(-0.0145494 -0.00594264 0)
(-0.010815 -0.00647463 0)
(-0.00684457 -0.00645983 0)
(-0.00312863 -0.00536698 0)
(-0.000713144 -0.00245291 0)
(-0.000804772 0.00426783 0)
(-0.00353788 0.00888276 0)
(-0.0077351 0.0105541 0)
(-0.0121891 0.0105504 0)
(-0.0163599 0.00969116 0)
(-0.0200452 0.00837002 0)
(-0.0231193 0.00676552 0)
(-0.025495 0.00497134 0)
(-0.0271146 0.00305045 0)
(-0.0279423 0.00105435 0)
(-0.0279598 -0.00096996 0)
(-0.0271653 -0.00297648 0)
(-0.0255726 -0.00491719 0)
(-0.023214 -0.00673845 0)
(-0.0201445 -0.00837396 0)
(-0.0164508 -0.00972549 0)
(-0.01226 -0.0106087 0)
(-0.00777907 -0.010623 0)
(-0.00355698 -0.00894067 0)
(-0.000807544 -0.00428275 0)
(-0.000886956 0.00627702 0)
(-0.00392698 0.0128265 0)
(-0.00860441 0.01513 0)
(-0.0135498 0.0150739 0)
(-0.018157 0.0138178 0)
(-0.0222071 0.0119149 0)
(-0.0255701 0.00961772 0)
(-0.0281594 0.00705964 0)
(-0.0299206 0.00432922 0)
(-0.0308211 0.00149727 0)
(-0.0308443 -0.00137296 0)
(-0.0299879 -0.00422004 0)
(-0.028263 -0.00697933 0)
(-0.0256972 -0.00957702 0)
(-0.0223416 -0.0119196 0)
(-0.0182814 -0.0138671 0)
(-0.0136485 -0.0151582 0)
(-0.00866734 -0.0152291 0)
(-0.00395533 -0.0129097 0)
(-0.000892475 -0.00630511 0)
(-0.00099321 0.00850619 0)
(-0.00441134 0.0172228 0)
(-0.00967062 0.0202229 0)
(-0.0152096 0.0200861 0)
(-0.0203384 0.0183655 0)
(-0.024817 0.0158001 0)
(-0.0285121 0.0127286 0)
(-0.0313421 0.00932911 0)
(-0.0332607 0.00571694 0)
(-0.0342424 0.00198078 0)
(-0.0342742 -0.00180274 0)
(-0.0333532 -0.00556011 0)
(-0.0314851 -0.00921292 0)
(-0.0286887 -0.0126685 0)
(-0.0250055 -0.0158049 0)
(-0.0205148 -0.0184345 0)
(-0.0153513 -0.0202058 0)
(-0.00976236 -0.0203645 0)
(-0.00445279 -0.0173427 0)
(-0.00100175 -0.00855237 0)
(-0.00113764 0.0110313 0)
(-0.0050538 0.0222076 0)
(-0.0110647 0.02598 0)
(-0.0173589 0.0257193 0)
(-0.0231388 0.02344 0)
(-0.0281397 0.0201031 0)
(-0.0322294 0.0161508 0)
(-0.0353388 0.0118129 0)
(-0.0374369 0.00723245 0)
(-0.038511 0.00251284 0)
(-0.0385551 -0.00226113 0)
(-0.0375651 -0.00700987 0)
(-0.0355379 -0.0116464 0)
(-0.0324774 -0.0160624 0)
(-0.028407 -0.0201063 0)
(-0.0233918 -0.0235353 0)
(-0.0175646 -0.0258886 0)
(-0.0111993 -0.0261825 0)
(-0.00511443 -0.022381 0)
(-0.00115022 -0.0111028 0)
(-0.00133223 0.0139521 0)
(-0.0059071 0.0279634 0)
(-0.0128947 0.0325923 0)
(-0.0201481 0.0321356 0)
(-0.0267307 0.0291622 0)
(-0.0323538 0.0249054 0)
(-0.0368968 0.0199345 0)
(-0.0403158 0.0145397 0)
(-0.0426076 0.00889085 0)
(-0.0437813 0.00310053 0)
(-0.0438421 -0.00274734 0)
(-0.0427849 -0.00857693 0)
(-0.0405929 -0.0143019 0)
(-0.0372451 -0.0198042 0)
(-0.0327338 -0.0249035 0)
(-0.0270952 -0.0292923 0)
(-0.0204485 -0.0323747 0)
(-0.0130935 -0.0328834 0)
(-0.00599664 -0.028216 0)
(-0.0013507 -0.0140605 0)
(-0.00159418 0.0173994 0)
(-0.00704179 0.0347294 0)
(-0.0152969 0.0403005 0)
(-0.0237563 0.0395258 0)
(-0.0313058 0.0356608 0)
(-0.037641 0.0302816 0)
(-0.0426743 0.0241161 0)
(-0.0464095 0.0175236 0)
(-0.0488902 0.0106974 0)
(-0.0501605 0.00374813 0)
(-0.0502438 -0.00325521 0)
(-0.0491337 -0.0102562 0)
(-0.0467929 -0.017184 0)
(-0.0431618 -0.0239225 0)
(-0.0381808 -0.0302667 0)
(-0.0318325 -0.0358352 0)
(-0.0241983 -0.0398625 0)
(-0.0155941 -0.0407208 0)
(-0.00717664 -0.0351005 0)
(-0.00162193 -0.0175625 0)
(-0.00195284 0.0215516 0)
(-0.00857064 0.0428244 0)
(-0.0184766 0.0494073 0)
(-0.0284374 0.0481069 0)
(-0.0371177 0.0430589 0)
(-0.0442236 0.0362816 0)
(-0.0497398 0.0287005 0)
(-0.0537548 0.0207505 0)
(-0.056387 0.0126382 0)
(-0.057734 0.00445422 0)
(-0.0578466 -0.00376982 0)
(-0.0567176 -0.0120203 0)
(-0.0542804 -0.0202646 0)
(-0.0504181 -0.0284093 0)
(-0.0449891 -0.0362367 0)
(-0.0378815 -0.0432851 0)
(-0.0290939 -0.0485772 0)
(-0.0189286 -0.0500156 0)
(-0.00877945 -0.0433745 0)
(-0.00199624 -0.0217979 0)
(-0.00246198 0.0266681 0)
(-0.010686 0.0526895 0)
(-0.0227603 0.0602968 0)
(-0.0345688 0.058115 0)
(-0.0445168 0.0514511 0)
(-0.0523826 0.0429022 0)
(-0.0582945 0.0336351 0)
(-0.0624814 0.0241579 0)
(-0.065176 0.0146683 0)
(-0.0665532 0.00520673 0)
(-0.0667026 -0.00426443 0)
(-0.0656175 -0.0138077 0)
(-0.0631923 -0.0234633 0)
(-0.0592292 -0.0331932 0)
(-0.0534638 -0.042794 0)
(-0.045627 -0.0517292 0)
(-0.0355545 -0.0587631 0)
(-0.0234624 -0.0611783 0)
(-0.0110208 -0.053514 0)
(-0.0025335 -0.0270459 0)
(-0.00322571 0.0331551 0)
(-0.013729 0.0649598 0)
(-0.0286784 0.073456 0)
(-0.0427119 0.0697825 0)
(-0.0539763 0.0608589 0)
(-0.0624552 0.0500401 0)
(-0.0685388 0.0387702 0)
(-0.0726782 0.0276065 0)
(-0.0752694 0.0166939 0)
(-0.0765912 0.00597669 0)
(-0.0767843 -0.00469636 0)
(-0.0758444 -0.015508 0)
(-0.0736193 -0.0266182 0)
(-0.0698064 -0.0380968 0)
(-0.0639678 -0.0498065 0)
(-0.0555885 -0.0611689 0)
(-0.0442055 -0.0706559 0)
(-0.0297932 -0.0747324 0)
(-0.0142878 -0.0662133 0)
(-0.00335124 -0.0337504 0)
(-0.00445334 0.0416988 0)
(-0.0183162 0.0805768 0)
(-0.0370823 0.0894812 0)
(-0.0536646 0.0832718 0)
(-0.0660748 0.071143 0)
(-0.074765 0.0574133 0)
(-0.0805739 0.0438014 0)
(-0.0842801 0.0308432 0)
(-0.0864941 0.0185528 0)
(-0.0876206 0.00671153 0)
(-0.0878597 -0.00500141 0)
(-0.0872139 -0.0169416 0)
(-0.0854827 -0.0294484 0)
(-0.0822439 -0.0427744 0)
(-0.0768376 -0.0569411 0)
(-0.0683911 -0.0714181 0)
(-0.0559314 -0.0844018 0)
(-0.0388833 -0.0913175 0)
(-0.0192875 -0.0825143 0)
(-0.00468901 -0.0426759 0)
(-0.00656598 0.0535243 0)
(-0.0255392 0.100935 0)
(-0.0492391 0.10901 0)
(-0.0683765 0.0985086 0)
(-0.0812693 0.0818358 0)
(-0.089315 0.064435 0)
(-0.0940585 0.0481884 0)
(-0.096714 0.0334552 0)
(-0.0981373 0.0199907 0)
(-0.0988587 0.00732518 0)
(-0.0991342 -0.00509291 0)
(-0.098978 -0.0178445 0)
(-0.0981565 -0.0315128 0)
(-0.0961407 -0.0466307 0)
(-0.0920306 -0.063527 0)
(-0.0844908 -0.0819114 0)
(-0.0717541 -0.0998583 0)
(-0.0521463 -0.111597 0)
(-0.0272704 -0.103965 0)
(-0.00703076 -0.0552073 0)
(-0.0103497 0.0708426 0)
(-0.0371185 0.127942 0)
(-0.0665664 0.132409 0)
(-0.0872551 0.114798 0)
(-0.0989471 0.0918393 0)
(-0.104731 0.0700221 0)
(-0.107128 0.0510526 0)
(-0.107826 0.0348203 0)
(-0.107887 0.0206371 0)
(-0.107914 0.00768247 0)
(-0.108189 -0.00487467 0)
(-0.108741 -0.0178736 0)
(-0.109347 -0.0321907 0)
(-0.109443 -0.0487435 0)
(-0.107957 -0.0683751 0)
(-0.103081 -0.0913828 0)
(-0.0919812 -0.11615 0)
(-0.0710591 -0.135865 0)
(-0.0401495 -0.13264 0)
(-0.0112628 -0.0738405 0)
(-0.0169524 0.0976115 0)
(-0.0548299 0.163655 0)
(-0.088809 0.158809 0)
(-0.10747 0.129986 0)
(-0.114381 0.0989046 0)
(-0.115157 0.0723379 0)
(-0.113332 0.0510775 0)
(-0.110891 0.0340823 0)
(-0.108894 0.0200003 0)
(-0.107873 0.00758648 0)
(-0.108059 -0.00427269 0)
(-0.109497 -0.0166542 0)
(-0.112048 -0.0307228 0)
(-0.115275 -0.0478461 0)
(-0.118184 -0.0696069 0)
(-0.118748 -0.0974031 0)
(-0.113097 -0.130808 0)
(-0.0948836 -0.162954 0)
(-0.0596188 -0.170664 0)
(-0.0185767 -0.103005 0)
(-0.0268114 0.140853 0)
(-0.0770086 0.208356 0)
(-0.107545 0.183358 0)
(-0.115138 0.138591 0)
(-0.110811 0.0987349 0)
(-0.102615 0.0684865 0)
(-0.0943208 0.0464739 0)
(-0.0875326 0.0302016 0)
(-0.0828528 0.0175168 0)
(-0.080462 0.00678732 0)
(-0.0804122 -0.00328167 0)
(-0.0827466 -0.0138836 0)
(-0.0875112 -0.0263546 0)
(-0.094657 -0.0424442 0)
(-0.103751 -0.064575 0)
(-0.113315 -0.0957719 0)
(-0.119418 -0.138188 0)
(-0.11333 -0.18765 0)
(-0.082734 -0.218227 0)
(-0.0289379 -0.150467 0)
(-0.0339826 0.207831 0)
(-0.0865289 0.25216 0)
(-0.0893852 0.191144 0)
(-0.0682222 0.129241 0)
(-0.0439176 0.0845173 0)
(-0.0230293 0.0548622 0)
(-0.00691619 0.0354799 0)
(0.00454517 0.0223597 0)
(0.0119062 0.0128033 0)
(0.0156657 0.00508257 0)
(0.0160908 -0.00201342 0)
(0.0131723 -0.0095404 0)
(0.00660906 -0.0187228 0)
(-0.00418924 -0.0313527 0)
(-0.019976 -0.0503506 0)
(-0.0411851 -0.0803393 0)
(-0.0666849 -0.127344 0)
(-0.0898021 -0.19483 0)
(-0.0886677 -0.264068 0)
(-0.0341393 -0.222511 0)
(0.00226512 0.266796 0)
(-0.0125577 0.250596 0)
(0.0568031 0.15502 0)
(0.126253 0.0900885 0)
(0.173608 0.0526595 0)
(0.204934 0.0314015 0)
(0.225794 0.019126 0)
(0.239363 0.0116244 0)
(0.247663 0.00656899 0)
(0.251898 0.00269084 0)
(0.252628 -0.000784823 0)
(0.249899 -0.00448471 0)
(0.243231 -0.00915892 0)
(0.23147 -0.0160413 0)
(0.212523 -0.0274955 0)
(0.182939 -0.0481396 0)
(0.13673 -0.0864551 0)
(0.0672031 -0.15557 0)
(-0.0031217 -0.257919 0)
(0.011069 -0.277684 0)
(0.298574 0.143477 0)
(0.382427 0.116699 0)
(0.514807 0.0629403 0)
(0.601337 0.0320857 0)
(0.644468 0.0167124 0)
(0.667352 0.00904435 0)
(0.680773 0.00512024 0)
(0.688875 0.00297618 0)
(0.693638 0.00165866 0)
(0.696058 0.000711489 0)
(0.696565 -0.000106835 0)
(0.695205 -0.000971395 0)
(0.691663 -0.00209164 0)
(0.685078 -0.00384623 0)
(0.673597 -0.00705995 0)
(0.653214 -0.0136073 0)
(0.613488 -0.0276829 0)
(0.530021 -0.0580158 0)
(0.395703 -0.114028 0)
(0.307141 -0.144476 0)
)
;

boundaryField
{
    movingWall
    {
        type            fixedValue;
        value           uniform (1 0 0);
    }
    fixedWalls
    {
        type            noSlip;
    }
    frontAndBack
    {
        type            empty;
    }
}


// ************************************************************************* //
