/*--------------------------------*- C++ -*----------------------------------*\
  =========                 |
  \\      /  F ield         | OpenFOAM: The Open Source CFD Toolbox
   \\    /   O peration     | Website:  https://openfoam.org
    \\  /    A nd           | Version:  6
     \\/     M anipulation  |
\*---------------------------------------------------------------------------*/
FoamFile
{
    version     2.0;
    format      ascii;
    class       volScalarField;
    location    "0.03";
    object      p;
}
// * * * * * * * * * * * * * * * * * * * * * * * * * * * * * * * * * * * * * //

dimensions      [0 2 -2 0 0 0 0];

internalField   nonuniform List<scalar> 
400
(
7.76258e-08
-0.00453768
-0.00960597
-0.0127999
-0.0128948
-0.00943051
-0.00248379
0.00750236
0.0198484
0.033721
0.0481878
0.0622614
0.0749467
0.0853043
0.0925397
0.0961281
0.0959777
0.092616
0.0873938
0.0828182
0.0044751
-0.000196827
-0.00411655
-0.00610585
-0.00560526
-0.00227668
0.00385542
0.0124659
0.0230229
0.0348497
0.0471732
0.0591688
0.0700109
0.078934
0.0853093
0.0887418
0.0891931
0.0870549
0.0829966
0.0782974
0.00985879
0.00342636
-0.000863753
-0.00266513
-0.00205169
0.00114483
0.00686217
0.0147944
0.0244691
0.0352894
0.0465694
0.0575726
0.0675572
0.0758309
0.0818152
0.0851247
0.0856756
0.0836881
0.0792098
0.0727192
0.0141745
0.00535768
-6.35582e-05
-0.0022391
-0.00176054
0.00137784
0.00703623
0.0148707
0.0244083
0.0350743
0.046213
0.0571158
0.0670581
0.0753458
0.0813698
0.0846773
0.0850886
0.082661
0.07695
0.0679914
0.0162984
0.00492888
-0.00186667
-0.00457603
-0.0042364
-0.000989877
0.0049341
0.0131283
0.0230887
0.0342308
0.045896
0.0573678
0.0678987
0.0767475
0.083226
0.0867696
0.0870737
0.0840402
0.0768047
0.0651357
0.0154275
0.00132611
-0.00697161
-0.0102238
-0.00989431
-0.00627168
0.000312798
0.00936878
0.020339
0.0326061
0.045485
0.0582252
0.0700254
0.0800603
0.0875192
0.0916803
0.0920784
0.0884445
0.0795024
0.0648311
0.0108196
-0.00631198
-0.016207
-0.0199026
-0.0193347
-0.0149596
-0.00723074
0.00325798
0.015879
0.029968
0.0448001
0.0595756
0.0734183
0.0853879
0.0945082
0.0998459
0.100719
0.0966369
0.0858378
0.0677061
0.00159155
-0.018999
-0.0305528
-0.0344698
-0.0332755
-0.0276447
-0.0181855
-0.00561701
0.00935196
0.0260074
0.0435851
0.0612362
0.0780029
0.0928092
0.104471
0.111778
0.113745
0.109561
0.0968049
0.0745741
-0.0134607
-0.0380514
-0.0512543
-0.0549996
-0.0526055
-0.0450513
-0.0331467
-0.0177591
0.000318893
0.0203348
0.0415047
0.062951
0.0836483
0.102381
0.117723
0.128104
0.132121
0.128473
0.113783
0.0866612
-0.0360408
-0.0652401
-0.0799174
-0.0828217
-0.0783785
-0.068003
-0.0527672
-0.0337084
-0.0116933
0.0125179
0.0381649
0.0643908
0.0901478
0.114107
0.134581
0.149562
0.157072
0.155068
0.138744
0.105858
-0.0685826
-0.102981
-0.118609
-0.119531
-0.111758
-0.0973266
-0.0776414
-0.0539221
-0.0270793
0.00217602
0.0331826
0.0651915
0.0972228
0.127908
0.155329
0.176978
0.19012
0.191616
0.174514
0.13506
-0.114616
-0.154608
-0.169965
-0.166954
-0.153888
-0.133669
-0.1081
-0.0785672
-0.04596
-0.010846
0.0263282
0.0650566
0.104577
0.143631
0.18018
0.211225
0.233107
0.241136
0.225153
0.178706
-0.179445
-0.2248
-0.237286
-0.227006
-0.205624
-0.177177
-0.143881
-0.107207
-0.0678959
-0.026224
0.0177412
0.0639251
0.112005
0.161083
0.209245
0.253158
0.288183
0.307585
0.29652
0.243717
-0.271569
-0.320261
-0.324543
-0.301336
-0.267036
-0.22698
-0.183654
-0.138391
-0.0915437
-0.0428684
0.00816605
0.0621565
0.119509
0.180056
0.242448
0.303446
0.357667
0.396006
0.397144
0.341328
-0.405694
-0.450758
-0.436007
-0.390446
-0.336477
-0.280391
-0.224415
-0.169228
-0.114366
-0.0587332
-0.000924437
0.0605971
0.127298
0.20021
0.279224
0.362069
0.44347
0.512334
0.539419
0.490635
-0.608203
-0.630077
-0.575122
-0.492238
-0.409343
-0.332057
-0.261016
-0.195216
-0.132665
-0.0709634
-0.00753223
0.0603534
0.135529
0.220734
0.318007
0.427515
0.54602
0.662406
0.740366
0.72413
-0.92726
-0.876094
-0.742536
-0.600819
-0.477572
-0.373995
-0.286632
-0.210961
-0.1424
-0.0767105
-0.00989021
0.0621202
0.143723
0.23983
0.355716
0.496152
0.663161
0.850019
1.02136
1.09696
-1.47223
-1.21083
-0.926622
-0.699584
-0.525956
-0.394165
-0.292706
-0.210869
-0.140231
-0.0743557
-0.00783623
0.0645746
0.148748
0.251983
0.383868
0.55651
0.781855
1.06741
1.41057
1.72831
-2.53513
-1.64627
-1.05692
-0.724561
-0.510033
-0.364335
-0.262487
-0.185821
-0.122087
-0.0634106
-0.00392358
0.0618246
0.140153
0.239793
0.37429
0.564698
0.839616
1.24822
1.92787
2.91828
-4.35651
-2.05889
-0.989542
-0.582786
-0.379464
-0.260175
-0.185475
-0.13232
-0.0880433
-0.0459419
-0.00170783
0.0484836
0.109314
0.188094
0.298236
0.46536
0.737202
1.2407
2.42483
4.83671
)
;

boundaryField
{
    movingWall
    {
        type            zeroGradient;
    }
    fixedWalls
    {
        type            zeroGradient;
    }
    frontAndBack
    {
        type            empty;
    }
}


// ************************************************************************* //
