/*--------------------------------*- C++ -*----------------------------------*\
  =========                 |
  \\      /  F ield         | OpenFOAM: The Open Source CFD Toolbox
   \\    /   O peration     | Website:  https://openfoam.org
    \\  /    A nd           | Version:  6
     \\/     M anipulation  |
\*---------------------------------------------------------------------------*/
FoamFile
{
    version     2.0;
    format      ascii;
    class       surfaceScalarField;
    location    "0.03";
    object      phi;
}
// * * * * * * * * * * * * * * * * * * * * * * * * * * * * * * * * * * * * * //

dimensions      [0 3 -1 0 0 0 0];

internalField   nonuniform List<scalar> 
760
(
7.86044e-09
-7.86074e-09
-2.66986e-08
3.45591e-08
-1.03854e-07
7.71561e-08
-2.08779e-07
1.04925e-07
-3.25613e-07
1.16835e-07
-4.40318e-07
1.14705e-07
-5.41496e-07
1.01178e-07
-6.20512e-07
7.90156e-08
-6.7127e-07
5.07583e-08
-6.89965e-07
1.8695e-08
-6.74961e-07
-1.50042e-08
-6.26864e-07
-4.80973e-08
-5.48771e-07
-7.80925e-08
-4.4663e-07
-1.02141e-07
-3.29562e-07
-1.17068e-07
-2.0995e-07
-1.19612e-07
-1.02956e-07
-1.06994e-07
-2.51927e-08
-7.77629e-08
8.65616e-09
-3.38488e-08
8.65627e-09
-3.26449e-08
2.47841e-08
-1.55095e-07
1.57009e-07
-3.5836e-07
2.80421e-07
-6.15746e-07
3.6231e-07
-8.95856e-07
3.96944e-07
-1.16879e-06
3.87635e-07
-1.409e-06
3.41392e-07
-1.59642e-06
2.66434e-07
-1.71656e-06
1.70899e-07
-1.76036e-06
6.24941e-08
-1.72407e-06
-5.12874e-08
-1.60946e-06
-1.62712e-07
-1.42419e-06
-2.63358e-07
-1.18243e-06
-3.43904e-07
-9.05121e-07
-3.94379e-07
-6.19607e-07
-4.05126e-07
-3.57896e-07
-3.68705e-07
-1.52869e-07
-2.8279e-07
-3.12174e-08
-1.55501e-07
-2.25611e-08
-7.68505e-08
1.01635e-07
-2.8888e-07
3.6904e-07
-6.07518e-07
5.99059e-07
-9.93701e-07
7.48494e-07
-1.40494e-06
8.08182e-07
-1.80104e-06
7.83739e-07
-2.14746e-06
6.87814e-07
-2.4168e-06
5.35765e-07
-2.58913e-06
3.43233e-07
-2.65197e-06
1.25334e-07
-2.60016e-06
-1.03098e-07
-2.43612e-06
-3.26754e-07
-2.17039e-06
-5.29082e-07
-1.82232e-06
-6.91977e-07
-1.42034e-06
-7.96359e-07
-1.00137e-06
-8.24095e-07
-6.08517e-07
-7.61557e-07
-2.86564e-07
-6.04742e-07
-7.49927e-08
-3.67072e-07
-9.7554e-08
-1.15615e-07
2.1725e-07
-4.13402e-07
6.66826e-07
-8.4268e-07
1.02834e-06
-1.34913e-06
1.25494e-06
-1.879e-06
1.33805e-06
-2.38347e-06
1.28821e-06
-2.82139e-06
1.12573e-06
-3.16044e-06
8.74814e-07
-3.37725e-06
5.60049e-07
-3.45712e-06
2.05198e-07
-3.39379e-06
-1.66426e-07
-3.18976e-06
-5.30779e-07
-2.85699e-06
-8.6186e-07
-2.4178e-06
-1.13116e-06
-1.90562e-06
-1.30854e-06
-1.36461e-06
-1.36511e-06
-8.47635e-07
-1.27853e-06
-4.12039e-07
-1.04034e-06
-1.13471e-07
-6.6564e-07
-2.11025e-07
-1.51483e-07
3.68732e-07
-5.33889e-07
1.04923e-06
-1.07426e-06
1.56871e-06
-1.70082e-06
1.8815e-06
-2.34726e-06
1.9845e-06
-2.95621e-06
1.89715e-06
-3.48093e-06
1.65046e-06
-3.88563e-06
1.27952e-06
-4.14477e-06
8.19187e-07
-4.24222e-06
3.02641e-07
-4.17075e-06
-2.37894e-07
-3.93229e-06
-7.6924e-07
-3.53888e-06
-1.25526e-06
-3.01424e-06
-1.65581e-06
-2.39518e-06
-1.9276e-06
-1.73225e-06
-2.02804e-06
-1.08854e-06
-1.92224e-06
-5.36045e-07
-1.59283e-06
-1.4965e-07
-1.05204e-06
-3.60675e-07
-1.88238e-07
5.5697e-07
-6.59596e-07
1.52059e-06
-1.31754e-06
2.22666e-06
-2.07046e-06
2.63442e-06
-2.8379e-06
2.75194e-06
-3.55356e-06
2.61281e-06
-4.16576e-06
2.26265e-06
-4.63631e-06
1.75007e-06
-4.93862e-06
1.12149e-06
-5.05582e-06
4.19842e-07
-4.97974e-06
-3.13972e-07
-4.71101e-06
-1.03797e-06
-4.26044e-06
-1.70583e-06
-3.65143e-06
-2.26481e-06
-2.9228e-06
-2.65623e-06
-2.13097e-06
-2.81987e-06
-1.35024e-06
-2.70297e-06
-6.69959e-07
-2.27311e-06
-1.87994e-07
-1.534e-06
-5.48669e-07
-2.29568e-07
7.86539e-07
-8.0021e-07
2.09123e-06
-1.58796e-06
3.0144e-06
-2.4781e-06
3.52456e-06
-3.37428e-06
3.64812e-06
-4.20103e-06
3.43957e-06
-4.90267e-06
2.96429e-06
-5.44012e-06
2.28751e-06
-5.78709e-06
1.46847e-06
-5.92691e-06
5.59659e-07
-5.85053e-06
-3.9035e-07
-5.55648e-06
-1.33202e-06
-5.0527e-06
-2.20961e-06
-4.36016e-06
-2.95735e-06
-3.51765e-06
-3.49874e-06
-2.58637e-06
-3.75116e-06
-1.65256e-06
-3.63678e-06
-8.26094e-07
-3.09957e-06
-2.33067e-07
-2.12703e-06
-7.81736e-07
-2.78916e-07
1.06545e-06
-9.64707e-07
2.77702e-06
-1.89889e-06
3.94858e-06
-2.93904e-06
4.56471e-06
-3.97111e-06
4.68019e-06
-4.91104e-06
4.3795e-06
-5.70105e-06
3.7543e-06
-6.30354e-06
2.89e-06
-6.69472e-06
1.85965e-06
-6.85948e-06
7.24417e-07
-6.78828e-06
-4.61548e-07
-6.47668e-06
-1.64361e-06
-5.92768e-06
-2.75862e-06
-5.15681e-06
-3.72822e-06
-4.19949e-06
-4.45606e-06
-3.11915e-06
-4.8315e-06
-2.01362e-06
-4.74232e-06
-1.01649e-06
-4.0967e-06
-2.89396e-07
-2.85412e-06
-1.07113e-06
-3.39546e-07
1.405e-06
-1.16091e-06
3.59839e-06
-2.26008e-06
5.04775e-06
-3.46083e-06
5.76547e-06
-4.63016e-06
5.84951e-06
-5.67741e-06
5.42675e-06
-6.5463e-06
4.62319e-06
-7.20458e-06
3.54828e-06
-7.63429e-06
2.28936e-06
-7.82409e-06
9.14227e-07
-7.7648e-06
-5.20842e-07
-7.44821e-06
-1.9602e-06
-6.86985e-06
-3.33698e-06
-6.03567e-06
-4.5624e-06
-4.97247e-06
-5.51926e-06
-3.74084e-06
-6.06312e-06
-2.44756e-06
-6.0356e-06
-1.25228e-06
-5.29198e-06
-3.61557e-07
-3.74485e-06
-1.43269e-06
-4.14893e-07
1.81989e-06
-1.3955e-06
4.57899e-06
-2.67625e-06
6.3285e-06
-4.03989e-06
7.1291e-06
-5.33466e-06
7.14429e-06
-6.46793e-06
6.56001e-06
-7.39102e-06
5.54628e-06
-8.08295e-06
4.24021e-06
-8.53628e-06
2.74269e-06
-8.74672e-06
1.12466e-06
-8.70688e-06
-5.60676e-07
-8.40437e-06
-2.26271e-06
-7.82452e-06
-3.91684e-06
-6.95836e-06
-5.42856e-06
-5.81647e-06
-6.66115e-06
-4.44798e-06
-7.43162e-06
-2.96175e-06
-7.52182e-06
-1.54319e-06
-6.71054e-06
-4.54496e-07
-4.83354e-06
-1.88718e-06
-5.09301e-07
2.32919e-06
-1.67439e-06
5.74408e-06
-3.14545e-06
7.79956e-06
-4.6568e-06
8.64045e-06
-6.04182e-06
8.52931e-06
-7.2147e-06
7.73289e-06
-8.144e-06
6.47559e-06
-8.82819e-06
4.9244e-06
-9.27649e-06
3.19099e-06
-9.49577e-06
1.34394e-06
-9.48273e-06
-5.73718e-07
-9.22099e-06
-2.52445e-06
-8.6833e-06
-4.45453e-06
-7.83996e-06
-6.27191e-06
-6.67535e-06
-7.82575e-06
-5.21375e-06
-8.89322e-06
-3.55276e-06
-9.18281e-06
-1.89699e-06
-8.36631e-06
-5.74154e-07
-6.15638e-06
-2.46134e-06
-6.29457e-07
2.95865e-06
-2.00344e-06
7.11806e-06
-3.65622e-06
9.45234e-06
-5.26926e-06
1.02535e-05
-6.67222e-06
9.93227e-06
-7.80165e-06
8.86232e-06
-8.65719e-06
7.33113e-06
-9.26696e-06
5.53417e-06
-9.66369e-06
3.58772e-06
-9.8698e-06
1.55006e-06
-9.88892e-06
-5.546e-07
-9.70204e-06
-2.71133e-06
-9.26833e-06
-4.88824e-06
-8.53234e-06
-7.00789e-06
-7.44112e-06
-8.91697e-06
-5.97576e-06
-1.03586e-05
-4.19965e-06
-1.09589e-05
-2.31835e-06
-1.02476e-05
-7.28642e-07
-7.74608e-06
-3.18998e-06
-7.87076e-07
3.74573e-06
-2.3889e-06
8.71989e-06
-4.18165e-06
1.12451e-05
-5.79979e-06
1.18716e-05
-7.09406e-06
1.12265e-05
-8.04828e-06
9.81653e-06
-8.71114e-06
7.994e-06
-9.15112e-06
5.97415e-06
-9.43005e-06
3.86665e-06
-9.58914e-06
1.70915e-06
-9.64159e-06
-5.02156e-07
-9.56851e-06
-2.78441e-06
-9.31748e-06
-5.13927e-06
-8.80571e-06
-7.51966e-06
-7.93363e-06
-9.78905e-06
-6.61763e-06
-1.16746e-05
-4.85232e-06
-1.27242e-05
-2.80603e-06
-1.22939e-05
-9.30278e-07
-9.62183e-06
-4.12026e-06
-1.00323e-06
4.74895e-06
-2.83503e-06
1.05517e-05
-4.66465e-06
1.30747e-05
-6.11216e-06
1.33191e-05
-7.09751e-06
1.22119e-05
-7.68761e-06
1.04066e-05
-7.99955e-06
8.30594e-06
-8.14922e-06
6.12381e-06
-8.22837e-06
3.9458e-06
-8.29635e-06
1.77714e-06
-8.37702e-06
-4.2149e-07
-8.45574e-06
-2.70569e-06
-8.47501e-06
-5.12e-06
-8.33054e-06
-7.66413e-06
-7.87455e-06
-1.0245e-05
-6.94026e-06
-1.26089e-05
-5.40915e-06
-1.42554e-05
-3.34466e-06
-1.43584e-05
-1.19826e-06
-1.17682e-05
-5.31851e-06
-1.31229e-06
6.06124e-06
-3.32875e-06
1.25681e-05
-4.97973e-06
1.47257e-05
-5.96373e-06
1.43031e-05
-6.35168e-06
1.25998e-05
-6.33589e-06
1.03908e-05
-6.11389e-06
8.08395e-06
-5.84475e-06
5.85467e-06
-5.6406e-06
3.74164e-06
-5.57099e-06
1.70752e-06
-5.66784e-06
-3.24631e-07
-5.92549e-06
-2.44804e-06
-6.29358e-06
-4.7519e-06
-6.66374e-06
-7.29397e-06
-6.85519e-06
-1.00536e-05
-6.6157e-06
-1.28484e-05
-5.6713e-06
-1.51998e-05
-3.87914e-06
-1.61505e-05
-1.55806e-06
-1.40893e-05
-6.87657e-06
-1.75157e-06
7.81281e-06
-3.77863e-06
1.45952e-05
-4.8375e-06
1.57846e-05
-4.91089e-06
1.43765e-05
-4.33414e-06
1.20231e-05
-3.45332e-06
9.51002e-06
-2.5327e-06
7.16332e-06
-1.74736e-06
5.06934e-06
-1.20414e-06
3.19842e-06
-9.64755e-07
1.46814e-06
-1.06125e-06
-2.28136e-07
-1.50047e-06
-2.00882e-06
-2.25616e-06
-3.99621e-06
-3.2469e-06
-6.30323e-06
-4.30028e-06
-9.0002e-06
-5.11381e-06
-1.20348e-05
-5.24868e-06
-1.50649e-05
-4.23939e-06
-1.71598e-05
-2.01974e-06
-1.6309e-05
-8.89631e-06
-2.29142e-06
1.01042e-05
-3.82647e-06
1.61303e-05
-3.56566e-06
1.55238e-05
-2.13618e-06
1.29471e-05
-2.28787e-07
1.01157e-05
1.69487e-06
7.58637e-06
3.37223e-06
5.48596e-06
4.67249e-06
3.76908e-06
5.53697e-06
2.33394e-06
5.93817e-06
1.06694e-06
5.85675e-06
-1.46709e-07
5.27307e-06
-1.42515e-06
4.17296e-06
-2.8961e-06
2.57146e-06
-4.70173e-06
5.63125e-07
-6.99187e-06
-1.59491e-06
-9.87681e-06
-3.38007e-06
-1.32797e-05
-3.95168e-06
-1.65882e-05
-2.48763e-06
-1.7773e-05
-1.13839e-05
-2.5888e-06
1.2693e-05
-2.34875e-06
1.58902e-05
3.43106e-07
1.28319e-05
3.82757e-06
9.46259e-06
7.18748e-06
6.75578e-06
1.00449e-05
4.72891e-06
1.22852e-05
3.24571e-06
1.39079e-05
2.14635e-06
1.49479e-05
1.29391e-06
1.54347e-05
5.80155e-07
1.53732e-05
-8.52001e-08
1.4736e-05
-7.87896e-07
1.34634e-05
-1.6235e-06
1.14763e-05
-2.71463e-06
8.71505e-06
-4.23066e-06
5.23355e-06
-6.39531e-06
1.39049e-06
-9.43667e-06
-1.81474e-06
-1.3383e-05
-2.50451e-06
-1.70832e-05
-1.38885e-05
-8.51387e-07
1.35444e-05
3.99259e-06
1.10462e-05
1.00865e-05
6.738e-06
1.53922e-05
4.15693e-06
1.95294e-05
2.6185e-06
2.25931e-05
1.66527e-06
2.47766e-05
1.06221e-06
2.6258e-05
6.64927e-07
2.71681e-05
3.83782e-07
2.75854e-05
1.62834e-07
2.7537e-05
-3.67292e-08
2.69974e-05
-2.48277e-07
2.58836e-05
-5.09778e-07
2.40459e-05
-8.76899e-07
2.12601e-05
-1.44491e-06
1.72504e-05
-2.38556e-06
1.18208e-05
-4.00708e-06
5.29424e-06
-6.85642e-06
-2.38299e-07
-1.15507e-05
-1.41268e-05
1.35444e-05
2.45907e-05
3.13287e-05
3.54856e-05
3.81041e-05
3.97694e-05
4.08316e-05
4.14965e-05
4.18803e-05
4.20431e-05
4.20064e-05
4.17581e-05
4.12483e-05
4.03714e-05
3.89265e-05
3.6541e-05
3.25339e-05
2.56775e-05
1.41268e-05
)
;

boundaryField
{
    movingWall
    {
        type            calculated;
        value           uniform 0;
    }
    fixedWalls
    {
        type            calculated;
        value           uniform 0;
    }
    frontAndBack
    {
        type            empty;
        value           nonuniform 0();
    }
}


// ************************************************************************* //
