/*--------------------------------*- C++ -*----------------------------------*\
  =========                 |
  \\      /  F ield         | OpenFOAM: The Open Source CFD Toolbox
   \\    /   O peration     | Website:  https://openfoam.org
    \\  /    A nd           | Version:  6
     \\/     M anipulation  |
\*---------------------------------------------------------------------------*/
FoamFile
{
    version     2.0;
    format      ascii;
    class       volVectorField;
    location    "0.03";
    object      U;
}
// * * * * * * * * * * * * * * * * * * * * * * * * * * * * * * * * * * * * * //

dimensions      [0 1 -1 0 0 0 0];

internalField   nonuniform List<vector> 
400
(
(0.000162764 -0.000160502 0)
(-2.05916e-05 0.000152794 0)
(-0.00116706 0.000503015 0)
(-0.00304777 0.000731852 0)
(-0.005326 0.000831563 0)
(-0.00769445 0.000821726 0)
(-0.00989606 0.000726261 0)
(-0.0117299 0.000567845 0)
(-0.0130491 0.000365828 0)
(-0.0137553 0.00013664 0)
(-0.0137942 -0.000104652 0)
(-0.0131548 -0.00034248 0)
(-0.011873 -0.000559075 0)
(-0.0100382 -0.0007333 0)
(-0.00780067 -0.000840426 0)
(-0.00537698 -0.000853558 0)
(-0.0030469 -0.000747631 0)
(-0.0011382 -0.000506321 0)
(5.75588e-06 -0.000145296 0)
(0.000172017 0.000167893 0)
(-0.000124917 -2.39603e-06 0)
(-0.00147246 0.00150167 0)
(-0.00480443 0.0030045 0)
(-0.00956441 0.00400887 0)
(-0.0150862 0.00444456 0)
(-0.0207463 0.00436128 0)
(-0.0259848 0.003849 0)
(-0.030342 0.00300757 0)
(-0.0334726 0.00193219 0)
(-0.0351417 0.00071065 0)
(-0.0352214 -0.000572821 0)
(-0.0336903 -0.00183127 0)
(-0.0306405 -0.002969 0)
(-0.0262881 -0.00387826 0)
(-0.0209844 -0.00444129 0)
(-0.0152177 -0.00454066 0)
(-0.00959055 -0.00408147 0)
(-0.00476646 -0.00302688 0)
(-0.00142763 -0.00147762 0)
(-0.000107729 3.18075e-05 0)
(-0.000470228 0.00109218 0)
(-0.00306924 0.00483916 0)
(-0.00850734 0.00822564 0)
(-0.0157885 0.0104687 0)
(-0.0239698 0.0114038 0)
(-0.0322237 0.0111104 0)
(-0.0397988 0.00977574 0)
(-0.0460702 0.0076261 0)
(-0.0505644 0.00489007 0)
(-0.0529581 0.00178697 0)
(-0.0530748 -0.00146862 0)
(-0.0508854 -0.00465522 0)
(-0.0465162 -0.00753279 0)
(-0.0402634 -0.00983779 0)
(-0.0326052 -0.0112913 0)
(-0.0242029 -0.0116272 0)
(-0.0158653 -0.0106458 0)
(-0.00847798 -0.00829364 0)
(-0.00301408 -0.0047993 0)
(-0.000446713 -0.00102929 0)
(-0.000760926 0.00302889 0)
(-0.0045275 0.00996365 0)
(-0.0119992 0.0157459 0)
(-0.0216711 0.0194553 0)
(-0.0322943 0.0208926 0)
(-0.0428569 0.0202026 0)
(-0.0524604 0.0177023 0)
(-0.0603655 0.0137776 0)
(-0.0660161 0.00882387 0)
(-0.0690331 0.00322469 0)
(-0.0692074 -0.00264255 0)
(-0.0664991 -0.00838841 0)
(-0.0610483 -0.0135925 0)
(-0.0531932 -0.0177961 0)
(-0.0434906 -0.0205168 0)
(-0.0327229 -0.0212975 0)
(-0.0218648 -0.0197942 0)
(-0.0120127 -0.0159 0)
(-0.00447091 -0.00991985 0)
(-0.000730727 -0.0029235 0)
(-0.0010169 0.00570075 0)
(-0.00590891 0.0167597 0)
(-0.0154164 0.0254309 0)
(-0.0274897 0.0307764 0)
(-0.0405342 0.0326553 0)
(-0.0533419 0.0313451 0)
(-0.0648809 0.027342 0)
(-0.0743249 0.0212272 0)
(-0.081064 0.0135887 0)
(-0.0846858 0.00499263 0)
(-0.0849581 -0.00400632 0)
(-0.0818251 -0.0128365 0)
(-0.0754201 -0.0208787 0)
(-0.0660924 -0.0274521 0)
(-0.054442 -0.0318333 0)
(-0.041346 -0.0333243 0)
(-0.0279377 -0.0313749 0)
(-0.0155502 -0.0257519 0)
(-0.00587721 -0.0167508 0)
(-0.000982904 -0.00555103 0)
(-0.0012733 0.00908518 0)
(-0.00733783 0.0252629 0)
(-0.0189992 0.037369 0)
(-0.0336115 0.0445283 0)
(-0.0491887 0.0467619 0)
(-0.0643067 0.0445716 0)
(-0.0778051 0.0387013 0)
(-0.0887903 0.0299741 0)
(-0.0966235 0.0191961 0)
(-0.100878 0.00712731 0)
(-0.101308 -0.00549846 0)
(-0.0978321 -0.0179263 0)
(-0.0905569 -0.0293307 0)
(-0.0798103 -0.0387868 0)
(-0.0662021 -0.0452871 0)
(-0.0506809 -0.0478245 0)
(-0.034541 -0.045553 0)
(-0.0193891 -0.0380089 0)
(-0.00738322 -0.0253798 0)
(-0.00124369 -0.00890697 0)
(-0.00156362 0.0132373 0)
(-0.00894383 0.0356236 0)
(-0.0230006 0.0517581 0)
(-0.0403976 0.0609017 0)
(-0.058698 0.0633606 0)
(-0.0762447 0.0599777 0)
(-0.0917594 0.0518351 0)
(-0.104308 0.0400542 0)
(-0.113255 0.0256857 0)
(-0.118184 0.00968548 0)
(-0.118843 -0.00704465 0)
(-0.115124 -0.0235813 0)
(-0.107077 -0.0388981 0)
(-0.0949702 -0.0518109 0)
(-0.0793782 -0.0609799 0)
(-0.0612854 -0.0650023 0)
(-0.0421387 -0.0626126 0)
(-0.0238542 -0.0529743 0)
(-0.00915162 -0.0360418 0)
(-0.00155365 -0.01308 0)
(-0.0019193 0.018284 0)
(-0.0108499 0.0481075 0)
(-0.027652 0.0688955 0)
(-0.0481468 0.0801477 0)
(-0.0693727 0.0826197 0)
(-0.0894335 0.0776501 0)
(-0.106963 0.0667737 0)
(-0.121035 0.0514775 0)
(-0.131062 0.0330804 0)
(-0.136679 0.012725 0)
(-0.137647 -0.00854861 0)
(-0.133824 -0.0296837 0)
(-0.125176 -0.0494785 0)
(-0.111857 -0.0664869 0)
(-0.0943397 -0.0789897 0)
(-0.0735789 -0.0850832 0)
(-0.0511366 -0.0829189 0)
(-0.029258 -0.071087 0)
(-0.011346 -0.049125 0)
(-0.00195363 -0.0182502 0)
(-0.00237218 0.0244191 0)
(-0.0131719 0.0630838 0)
(-0.0331452 0.0891481 0)
(-0.0570518 0.102524 0)
(-0.0813205 0.104654 0)
(-0.103835 0.0975814 0)
(-0.123207 0.0834393 0)
(-0.138595 0.0641561 0)
(-0.149541 0.0413352 0)
(-0.155782 0.0162787 0)
(-0.157127 -0.00988875 0)
(-0.153401 -0.0360405 0)
(-0.144452 -0.0608535 0)
(-0.130253 -0.0826422 0)
(-0.111076 -0.0992727 0)
(-0.0877354 -0.108223 0)
(-0.0618173 -0.10685 0)
(-0.0358752 -0.0928868 0)
(-0.0141299 -0.0651627 0)
(-0.00248792 -0.0246891 0)
(-0.00296022 0.0319026 0)
(-0.0160267 0.0810027 0)
(-0.0396228 0.112891 0)
(-0.067152 0.128195 0)
(-0.0943551 0.1294 0)
(-0.118964 0.119541 0)
(-0.139688 0.101526 0)
(-0.155899 0.077804 0)
(-0.167372 0.050264 0)
(-0.174032 0.0203144 0)
(-0.175783 -0.0109208 0)
(-0.172427 -0.0423448 0)
(-0.163666 -0.0726081 0)
(-0.14921 -0.099849 0)
(-0.128999 -0.121515 0)
(-0.103536 -0.134353 0)
(-0.0742554 -0.134669 0)
(-0.0439159 -0.118934 0)
(-0.0176725 -0.0848075 0)
(-0.0032108 -0.0327629 0)
(-0.00373866 0.04107 0)
(-0.0195516 0.102366 0)
(-0.0471712 0.140414 0)
(-0.0782722 0.157084 0)
(-0.107872 0.156444 0)
(-0.133712 0.142901 0)
(-0.154799 0.120347 0)
(-0.170904 0.0918156 0)
(-0.182179 0.0594517 0)
(-0.188839 0.0246825 0)
(-0.190945 -0.0114913 0)
(-0.188303 -0.0481446 0)
(-0.180452 -0.0840464 0)
(-0.166761 -0.117283 0)
(-0.146681 -0.144943 0)
(-0.120163 -0.162966 0)
(-0.0881918 -0.166319 0)
(-0.0534855 -0.149676 0)
(-0.0221604 -0.108788 0)
(-0.0041985 -0.0429462 0)
(-0.00480195 0.0523638 0)
(-0.023939 0.127691 0)
(-0.0558077 0.171776 0)
(-0.089922 0.188655 0)
(-0.120667 0.184783 0)
(-0.146109 0.166425 0)
(-0.16587 0.138661 0)
(-0.180361 0.105134 0)
(-0.190281 0.0681615 0)
(-0.196238 0.029056 0)
(-0.198522 -0.0114651 0)
(-0.196987 -0.0528285 0)
(-0.191016 -0.094121 0)
(-0.17959 -0.13358 0)
(-0.161517 -0.168093 0)
(-0.1359 -0.192816 0)
(-0.102838 -0.201128 0)
(-0.0645143 -0.185224 0)
(-0.027817 -0.137834 0)
(-0.0055713 -0.0558536 0)
(-0.00632585 0.0664085 0)
(-0.0294921 0.157453 0)
(-0.0654328 0.206567 0)
(-0.101104 0.221589 0)
(-0.130635 0.212513 0)
(-0.152988 0.188015 0)
(-0.16885 0.154502 0)
(-0.179549 0.116143 0)
(-0.186478 0.0752646 0)
(-0.190719 0.0328796 0)
(-0.192842 -0.0107642 0)
(-0.192802 -0.055646 0)
(-0.189883 -0.101407 0)
(-0.182697 -0.146722 0)
(-0.169324 -0.18858 0)
(-0.147732 -0.221568 0)
(-0.116553 -0.237374 0)
(-0.076613 -0.224996 0)
(-0.0349241 -0.172543 0)
(-0.00753324 -0.072308 0)
(-0.00863974 0.0841576 0)
(-0.0366845 0.191955 0)
(-0.0756588 0.243505 0)
(-0.109902 0.253309 0)
(-0.134251 0.236447 0)
(-0.149494 0.20448 0)
(-0.157927 0.165071 0)
(-0.162032 0.122643 0)
(-0.16395 0.079244 0)
(-0.165217 0.0353597 0)
(-0.166674 -0.009413 0)
(-0.168432 -0.0557822 0)
(-0.169788 -0.104175 0)
(-0.169129 -0.154042 0)
(-0.163891 -0.202946 0)
(-0.150755 -0.245413 0)
(-0.126287 -0.271715 0)
(-0.0887468 -0.267131 0)
(-0.0438048 -0.213105 0)
(-0.0104313 -0.093458 0)
(-0.0123081 0.107121 0)
(-0.0460965 0.230976 0)
(-0.0852401 0.279701 0)
(-0.112549 0.279327 0)
(-0.125607 0.251743 0)
(-0.12832 0.211451 0)
(-0.125072 0.166845 0)
(-0.119512 0.122029 0)
(-0.114346 0.0783573 0)
(-0.111365 0.0355477 0)
(-0.11157 -0.0075711 0)
(-0.115236 -0.0525142 0)
(-0.121849 -0.100634 0)
(-0.129889 -0.152472 0)
(-0.13652 -0.206757 0)
(-0.137359 -0.258847 0)
(-0.126576 -0.298526 0)
(-0.0984471 -0.30757 0)
(-0.0545869 -0.258689 0)
(-0.0147874 -0.120909 0)
(-0.0180354 0.137737 0)
(-0.0577163 0.272868 0)
(-0.090373 0.309368 0)
(-0.101382 0.292431 0)
(-0.0947025 0.251747 0)
(-0.0786223 0.203682 0)
(-0.0595718 0.156085 0)
(-0.0418589 0.11182 0)
(-0.0281842 0.0710552 0)
(-0.0201413 0.0325745 0)
(-0.0186184 -0.00552535 0)
(-0.0240084 -0.0454519 0)
(-0.0361819 -0.0894131 0)
(-0.0541926 -0.139176 0)
(-0.0756948 -0.195195 0)
(-0.096115 -0.254862 0)
(-0.107743 -0.30933 0)
(-0.0999329 -0.338691 0)
(-0.0661555 -0.306221 0)
(-0.0210463 -0.156913 0)
(-0.025654 0.180241 0)
(-0.0681539 0.312316 0)
(-0.0802672 0.321286 0)
(-0.0606956 0.281591 0)
(-0.0246763 0.228224 0)
(0.0153099 0.175964 0)
(0.0522042 0.129911 0)
(0.0824005 0.0906017 0)
(0.104236 0.0566712 0)
(0.116994 0.0260484 0)
(0.12028 -0.00361201 0)
(0.113715 -0.0348204 0)
(0.0969007 -0.0702421 0)
(0.0696871 -0.112612 0)
(0.0328716 -0.164286 0)
(-0.0104744 -0.225818 0)
(-0.0529027 -0.292453 0)
(-0.0800874 -0.34722 0)
(-0.072963 -0.347899 0)
(-0.0281887 -0.204898 0)
(-0.0291955 0.238516 0)
(-0.06188 0.33364 0)
(-0.0270751 0.295259 0)
(0.040563 0.232292 0)
(0.111817 0.173625 0)
(0.174965 0.125727 0)
(0.226165 0.0884806 0)
(0.264718 0.0595916 0)
(0.291198 0.0364312 0)
(0.306383 0.0165973 0)
(0.310679 -0.00209889 0)
(0.303883 -0.0218202 0)
(0.285099 -0.0449522 0)
(0.252835 -0.0743745 0)
(0.205457 -0.113633 0)
(0.142397 -0.166517 0)
(0.066475 -0.234837 0)
(-0.0106905 -0.312168 0)
(-0.0567088 -0.364267 0)
(-0.0281724 -0.265453 0)
(0.00966478 0.28122 0)
(0.0207162 0.294249 0)
(0.136326 0.209029 0)
(0.258438 0.140404 0)
(0.354186 0.0934631 0)
(0.425431 0.0619117 0)
(0.477127 0.0406937 0)
(0.513172 0.026045 0)
(0.536658 0.0153302 0)
(0.549703 0.0067376 0)
(0.553376 -0.00108812 0)
(0.547709 -0.00936065 0)
(0.53164 -0.0194508 0)
(0.502859 -0.0332649 0)
(0.457661 -0.0537991 0)
(0.390957 -0.085838 0)
(0.295984 -0.136432 0)
(0.168268 -0.213675 0)
(0.0410205 -0.30979 0)
(0.0198737 -0.298572 0)
(0.301181 0.145692 0)
(0.3981 0.127115 0)
(0.557278 0.0756628 0)
(0.672935 0.0431561 0)
(0.74052 0.0249046 0)
(0.781672 0.0145611 0)
(0.807951 0.00860329 0)
(0.82468 0.00504193 0)
(0.834846 0.00274767 0)
(0.84015 0.0010792 0)
(0.841384 -0.000362535 0)
(0.838638 -0.00189252 0)
(0.831321 -0.00386819 0)
(0.817941 -0.00685328 0)
(0.795634 -0.0119093 0)
(0.759039 -0.0211382 0)
(0.696253 -0.0386611 0)
(0.582677 -0.0720322 0)
(0.4171 -0.127147 0)
(0.310345 -0.148872 0)
)
;

boundaryField
{
    movingWall
    {
        type            fixedValue;
        value           uniform (1 0 0);
    }
    fixedWalls
    {
        type            noSlip;
    }
    frontAndBack
    {
        type            empty;
    }
}


// ************************************************************************* //
