/*--------------------------------*- C++ -*----------------------------------*\
  =========                 |
  \\      /  F ield         | OpenFOAM: The Open Source CFD Toolbox
   \\    /   O peration     | Website:  https://openfoam.org
    \\  /    A nd           | Version:  6
     \\/     M anipulation  |
\*---------------------------------------------------------------------------*/
FoamFile
{
    version     2.0;
    format      ascii;
    class       volVectorField;
    location    "0.02";
    object      U;
}
// * * * * * * * * * * * * * * * * * * * * * * * * * * * * * * * * * * * * * //

dimensions      [0 1 -1 0 0 0 0];

internalField   nonuniform List<vector> 
400
(
(9.05388e-05 -9.03696e-05 0)
(-0.000232754 0.000235694 0)
(-0.00144475 0.000534057 0)
(-0.00322672 0.00069454 0)
(-0.00523883 0.000736311 0)
(-0.00722429 0.000691881 0)
(-0.00899757 0.000589068 0)
(-0.0104312 0.000448663 0)
(-0.0114423 0.000284834 0)
(-0.0119794 0.000107123 0)
(-0.0120145 -7.72191e-05 0)
(-0.0115401 -0.000261129 0)
(-0.0105707 -0.000435848 0)
(-0.00914965 -0.000589084 0)
(-0.00735933 -0.000703203 0)
(-0.00533505 -0.000754107 0)
(-0.00327677 -0.000712049 0)
(-0.00145711 -0.000545188 0)
(-0.000227453 -0.000238489 0)
(9.54584e-05 9.28478e-05 0)
(-0.000218679 0.000215144 0)
(-0.00167812 0.00169038 0)
(-0.00487906 0.00293574 0)
(-0.00915005 0.00362726 0)
(-0.013843 0.00380291 0)
(-0.0184473 0.00357279 0)
(-0.0225614 0.00304913 0)
(-0.0258922 0.00232568 0)
(-0.0282412 0.00147312 0)
(-0.0294831 0.000543956 0)
(-0.0295512 -0.000419066 0)
(-0.0284311 -0.00137422 0)
(-0.0261644 -0.00227243 0)
(-0.0228607 -0.00304964 0)
(-0.0187171 -0.00362073 0)
(-0.0140411 -0.00387836 0)
(-0.00926042 -0.00370248 0)
(-0.00491547 -0.0029855 0)
(-0.00167537 -0.00170478 0)
(-0.000212332 -0.0002066 0)
(-0.000521117 0.0013997 0)
(-0.00302951 0.00490801 0)
(-0.00792682 0.00764422 0)
(-0.0141576 0.00915679 0)
(-0.0208516 0.00950555 0)
(-0.0273526 0.00890519 0)
(-0.0331336 0.00759635 0)
(-0.0378022 0.00579246 0)
(-0.0410891 0.00366319 0)
(-0.0428236 0.00134057 0)
(-0.0429147 -0.00106481 0)
(-0.0413436 -0.00344482 0)
(-0.038168 -0.00567498 0)
(-0.0335377 -0.00759792 0)
(-0.0277193 -0.00901228 0)
(-0.021123 -0.00967484 0)
(-0.01431 -0.00932749 0)
(-0.00797726 -0.00776032 0)
(-0.00302555 -0.00494516 0)
(-0.000512614 -0.00138514 0)
(-0.000742365 0.00326319 0)
(-0.00412098 0.00951515 0)
(-0.010499 0.0140832 0)
(-0.018423 0.0165321 0)
(-0.0267992 0.0170062 0)
(-0.0348508 0.0158627 0)
(-0.041964 0.0135017 0)
(-0.0476851 0.0102825 0)
(-0.0517053 0.00649578 0)
(-0.0538293 0.00237134 0)
(-0.0539519 -0.00189685 0)
(-0.052049 -0.00611902 0)
(-0.0481819 -0.0100781 0)
(-0.0425175 -0.0135019 0)
(-0.0353591 -0.0160461 0)
(-0.0271811 -0.0173 0)
(-0.0186415 -0.0168322 0)
(-0.010573 -0.0142909 0)
(-0.00411505 -0.0095839 0)
(-0.000729581 -0.00323765 0)
(-0.000917795 0.00564579 0)
(-0.00507244 0.0152915 0)
(-0.0128431 0.0220046 0)
(-0.0223781 0.0254673 0)
(-0.0323405 0.0259891 0)
(-0.041828 0.0241264 0)
(-0.0501514 0.0204761 0)
(-0.0568154 0.0155685 0)
(-0.0614913 0.00983047 0)
(-0.0639741 0.00359772 0)
(-0.0641512 -0.00284793 0)
(-0.0619898 -0.0092315 0)
(-0.0575428 -0.015237 0)
(-0.050974 -0.0204653 0)
(-0.0426 -0.0244077 0)
(-0.0329396 -0.0264532 0)
(-0.0227399 -0.0259519 0)
(-0.0129828 -0.0223495 0)
(-0.00507785 -0.0154127 0)
(-0.000901675 -0.00560638 0)
(-0.00108862 0.00850387 0)
(-0.00604022 0.0222174 0)
(-0.015275 0.0314276 0)
(-0.0265127 0.0359924 0)
(-0.038139 0.0364716 0)
(-0.0491093 0.0336931 0)
(-0.0586609 0.0285026 0)
(-0.0662703 0.0216333 0)
(-0.0716051 0.0136633 0)
(-0.0744637 0.00503761 0)
(-0.0747317 -0.00387768 0)
(-0.0723633 -0.0127275 0)
(-0.0673893 -0.0210983 0)
(-0.0599493 -0.0284551 0)
(-0.0503508 -0.034101 0)
(-0.0391413 -0.0371802 0)
(-0.0271592 -0.0367586 0)
(-0.0155637 -0.0319983 0)
(-0.00608749 -0.0224423 0)
(-0.00107337 -0.00845689 0)
(-0.00129067 0.0118829 0)
(-0.00717555 0.030421 0)
(-0.0181121 0.0425263 0)
(-0.0313058 0.0482817 0)
(-0.0448097 0.0485969 0)
(-0.0574173 0.0446641 0)
(-0.0682962 0.0376466 0)
(-0.0769115 0.0285206 0)
(-0.0829486 0.0180315 0)
(-0.086226 0.00673135 0)
(-0.0866347 -0.00494218 0)
(-0.0841118 -0.0165694 0)
(-0.0786483 -0.0276493 0)
(-0.0703328 -0.0375077 0)
(-0.0594321 -0.0452311 0)
(-0.046499 -0.049661 0)
(-0.0324609 -0.0494885 0)
(-0.0186874 -0.0434805 0)
(-0.00731855 -0.0308543 0)
(-0.0012848 -0.0118541 0)
(-0.00155808 0.0159086 0)
(-0.00862774 0.0401783 0)
(-0.0216661 0.0556261 0)
(-0.0372102 0.062634 0)
(-0.0528996 0.0625969 0)
(-0.0673496 0.0571975 0)
(-0.0796744 0.048007 0)
(-0.0893591 0.0362941 0)
(-0.09614 0.0229862 0)
(-0.0998819 0.00873225 0)
(-0.100494 -0.00598343 0)
(-0.0978927 -0.0207064 0)
(-0.0920067 -0.0348723 0)
(-0.0828352 -0.0476727 0)
(-0.0705561 -0.0579506 0)
(-0.0556821 -0.0641705 0)
(-0.039208 -0.0645246 0)
(-0.0227433 -0.0572245 0)
(-0.00895535 -0.0410105 0)
(-0.00157704 -0.0159578 0)
(-0.00192962 0.0207902 0)
(-0.0105593 0.0519187 0)
(-0.0262583 0.0711986 0)
(-0.044656 0.0794471 0)
(-0.0628745 0.0787492 0)
(-0.0793492 0.0714556 0)
(-0.0931821 0.0596633 0)
(-0.103935 0.0449921 0)
(-0.111448 0.0285616 0)
(-0.115674 0.0110946 0)
(-0.11656 -0.00692052 0)
(-0.114 -0.0250448 0)
(-0.107837 -0.0426952 0)
(-0.0979258 -0.0589526 0)
(-0.0842819 -0.0723961 0)
(-0.0672962 -0.0810269 0)
(-0.0479703 -0.0823709 0)
(-0.0281596 -0.0738469 0)
(-0.0112137 -0.0534713 0)
(-0.00200075 -0.0210332 0)
(-0.00245777 0.0268343 0)
(-0.0131672 0.0662336 0)
(-0.0322339 0.0898391 0)
(-0.054039 0.0991618 0)
(-0.0750703 0.0972979 0)
(-0.0936179 0.0875169 0)
(-0.108857 0.072593 0)
(-0.12052 0.0545601 0)
(-0.128632 0.0347283 0)
(-0.13329 0.0138516 0)
(-0.134514 -0.00764399 0)
(-0.132179 -0.0294121 0)
(-0.126013 -0.0509265 0)
(-0.115665 -0.0712109 0)
(-0.100881 -0.0885835 0)
(-0.0817974 -0.100493 0)
(-0.0592928 -0.103585 0)
(-0.0354157 -0.0941334 0)
(-0.0143667 -0.0690195 0)
(-0.00262787 -0.0274779 0)
(-0.00322107 0.0344757 0)
(-0.0167038 0.0838859 0)
(-0.0399552 0.112218 0)
(-0.065653 0.122161 0)
(-0.0895541 0.118323 0)
(-0.109914 0.105243 0)
(-0.126138 0.086553 0)
(-0.138269 0.0647552 0)
(-0.14663 0.0413254 0)
(-0.151535 0.0169776 0)
(-0.153122 -0.00802021 0)
(-0.151263 -0.033524 0)
(-0.145551 -0.059179 0)
(-0.135359 -0.0840527 0)
(-0.120036 -0.106252 0)
(-0.0992647 -0.122611 0)
(-0.0735679 -0.128639 0)
(-0.0450099 -0.118974 0)
(-0.0187657 -0.0886791 0)
(-0.00356699 -0.0358681 0)
(-0.00434268 0.0443272 0)
(-0.0214934 0.105803 0)
(-0.0497435 0.138967 0)
(-0.0795117 0.148577 0)
(-0.105826 0.141527 0)
(-0.127161 0.124078 0)
(-0.143407 0.100912 0)
(-0.155118 0.0750187 0)
(-0.163042 0.04797 0)
(-0.167797 0.0203315 0)
(-0.169684 -0.00791304 0)
(-0.168604 -0.0369629 0)
(-0.164015 -0.0667917 0)
(-0.15497 -0.0966757 0)
(-0.140285 -0.124643 0)
(-0.118941 -0.146927 0)
(-0.0907289 -0.157658 0)
(-0.0573313 -0.14919 0)
(-0.0248419 -0.113696 0)
(-0.00498448 -0.0470245 0)
(-0.00602153 0.0572554 0)
(-0.0279403 0.133014 0)
(-0.0617251 0.170428 0)
(-0.0949829 0.177948 0)
(-0.122278 0.165885 0)
(-0.142794 0.142758 0)
(-0.157294 0.114433 0)
(-0.167074 0.0843224 0)
(-0.173432 0.0539508 0)
(-0.177344 0.0235836 0)
(-0.17932 -0.00722768 0)
(-0.179326 -0.0391825 0)
(-0.176731 -0.0727714 0)
(-0.17028 -0.107713 0)
(-0.158186 -0.142213 0)
(-0.138469 -0.172079 0)
(-0.109673 -0.189946 0)
(-0.0723673 -0.185159 0)
(-0.0330715 -0.145409 0)
(-0.007135 -0.0620977 0)
(-0.00858482 0.0744927 0)
(-0.0365088 0.166442 0)
(-0.0754958 0.206149 0)
(-0.110115 0.208631 0)
(-0.135307 0.189145 0)
(-0.151809 0.158951 0)
(-0.161744 0.125051 0)
(-0.167358 0.0910388 0)
(-0.170536 0.0581484 0)
(-0.172599 0.0261529 0)
(-0.174255 -0.00597166 0)
(-0.175578 -0.0395594 0)
(-0.175951 -0.0757986 0)
(-0.173948 -0.115131 0)
(-0.167252 -0.15634 0)
(-0.152794 -0.195257 0)
(-0.127316 -0.223242 0)
(-0.0891316 -0.226075 0)
(-0.0438545 -0.184875 0)
(-0.0104007 -0.0826605 0)
(-0.0125483 0.0977759 0)
(-0.0475815 0.206391 0)
(-0.0893877 0.243958 0)
(-0.120442 0.236926 0)
(-0.137987 0.207225 0)
(-0.145535 0.16895 0)
(-0.147018 0.129768 0)
(-0.14564 0.0929492 0)
(-0.143713 0.0590702 0)
(-0.142725 0.0272124 0)
(-0.143478 -0.00430929 0)
(-0.146177 -0.0375095 0)
(-0.150382 -0.0743702 0)
(-0.154791 -0.116308 0)
(-0.156925 -0.1632 0)
(-0.152843 -0.211702 0)
(-0.137173 -0.252755 0)
(-0.104588 -0.268728 0)
(-0.0571345 -0.232024 0)
(-0.0152892 -0.110745 0)
(-0.0185217 0.129585 0)
(-0.0607529 0.251418 0)
(-0.0987297 0.278384 0)
(-0.116832 0.255948 0)
(-0.118184 0.213735 0)
(-0.110328 0.167673 0)
(-0.0989807 0.124919 0)
(-0.0878367 0.0875762 0)
(-0.0791143 0.0551322 0)
(-0.0740531 0.0258491 0)
(-0.0733143 -0.00256435 0)
(-0.0771956 -0.0326725 0)
(-0.0856238 -0.0671512 0)
(-0.0978871 -0.108472 0)
(-0.112073 -0.15808 0)
(-0.124227 -0.21456 0)
(-0.127362 -0.270198 0)
(-0.111576 -0.305723 0)
(-0.0712063 -0.284072 0)
(-0.0221319 -0.148868 0)
(-0.0262646 0.173903 0)
(-0.0722101 0.295901 0)
(-0.0916307 0.29786 0)
(-0.0815802 0.254236 0)
(-0.0560708 0.199918 0)
(-0.0265819 0.149335 0)
(0.000711413 0.107045 0)
(0.0228982 0.072985 0)
(0.038821 0.0452638 0)
(0.0481121 0.0214259 0)
(0.0505976 -0.00113154 0)
(0.0460006 -0.0251358 0)
(0.0338875 -0.0535502 0)
(0.0138865 -0.0896035 0)
(-0.0136709 -0.136408 0)
(-0.0464523 -0.195501 0)
(-0.0779585 -0.263151 0)
(-0.0949158 -0.323045 0)
(-0.0794642 -0.33264 0)
(-0.0296255 -0.200323 0)
(-0.0299306 0.234248 0)
(-0.0662809 0.323389 0)
(-0.0392912 0.281031 0)
(0.0183449 0.215877 0)
(0.0787269 0.156732 0)
(0.131175 0.109907 0)
(0.172739 0.0749907 0)
(0.203387 0.0493153 0)
(0.224149 0.0299134 0)
(0.236097 0.014144 0)
(0.239821 -0.000323024 0)
(0.235207 -0.0157509 0)
(0.221349 -0.0346682 0)
(0.196582 -0.060225 0)
(0.158851 -0.0964306 0)
(0.10684 -0.147753 0)
(0.0423137 -0.216823 0)
(-0.0243929 -0.297874 0)
(-0.0623182 -0.356483 0)
(-0.0292118 -0.264698 0)
(0.0083755 0.279482 0)
(0.0165503 0.290177 0)
(0.126107 0.20351 0)
(0.240451 0.134103 0)
(0.327782 0.0869343 0)
(0.390764 0.0557537 0)
(0.435072 0.0354519 0)
(0.465138 0.0221082 0)
(0.484393 0.0129215 0)
(0.495162 0.00596613 0)
(0.498627 -0.000169535 0)
(0.49488 -0.0067245 0)
(0.482868 -0.0151028 0)
(0.46019 -0.0272919 0)
(0.422865 -0.0464551 0)
(0.365243 -0.0776811 0)
(0.279672 -0.128515 0)
(0.160394 -0.207616 0)
(0.0391229 -0.307231 0)
(0.0204642 -0.299611 0)
(0.300427 0.145666 0)
(0.396099 0.126885 0)
(0.552734 0.0752376 0)
(0.665437 0.0424504 0)
(0.729722 0.0239906 0)
(0.767497 0.0135983 0)
(0.790733 0.00775125 0)
(0.805033 0.00440965 0)
(0.813542 0.00238967 0)
(0.818029 0.00101516 0)
(0.819313 -0.000126782 0)
(0.817497 -0.00135204 0)
(0.811989 -0.00301506 0)
(0.801282 -0.00567927 0)
(0.782434 -0.010414 0)
(0.749911 -0.019354 0)
(0.691528 -0.0367231 0)
(0.581979 -0.0703041 0)
(0.418534 -0.126323 0)
(0.311586 -0.149257 0)
)
;

boundaryField
{
    movingWall
    {
        type            fixedValue;
        value           uniform (1 0 0);
    }
    fixedWalls
    {
        type            noSlip;
    }
    frontAndBack
    {
        type            empty;
    }
}


// ************************************************************************* //
