/*--------------------------------*- C++ -*----------------------------------*\
  =========                 |
  \\      /  F ield         | OpenFOAM: The Open Source CFD Toolbox
   \\    /   O peration     | Website:  https://openfoam.org
    \\  /    A nd           | Version:  6
     \\/     M anipulation  |
\*---------------------------------------------------------------------------*/
FoamFile
{
    version     2.0;
    format      ascii;
    class       volScalarField;
    location    "0.065";
    object      p;
}
// * * * * * * * * * * * * * * * * * * * * * * * * * * * * * * * * * * * * * //

dimensions      [0 2 -2 0 0 0 0];

internalField   nonuniform List<scalar> 
400
(
1.70661e-05
-0.0347931
-0.078148
-0.111604
-0.124135
-0.110795
-0.0712109
-0.00831013
0.0727321
0.16528
0.261854
0.35467
0.436148
0.49949
0.539355
0.552717
0.539962
0.506177
0.462598
0.42779
0.0345246
-0.00124324
-0.0352722
-0.0583523
-0.0650385
-0.0518531
-0.0183494
0.0333601
0.0993476
0.174448
0.252754
0.328083
0.394443
0.446533
0.480286
0.493502
0.486634
0.463271
0.429047
0.393318
0.0803869
0.0308317
-0.00599731
-0.0273
-0.0327431
-0.0204186
0.00963902
0.0553795
0.113358
0.179148
0.247708
0.313756
0.372159
0.418343
0.448707
0.461095
0.455466
0.433836
0.396756
0.347231
0.122667
0.0540977
0.00828611
-0.0160156
-0.022653
-0.0111075
0.0178673
0.0618444
0.117353
0.180186
0.245644
0.308824
0.364916
0.409524
0.43897
0.450679
0.443861
0.419145
0.37295
0.304323
0.151627
0.0629369
0.00635617
-0.0222325
-0.0302513
-0.0184173
0.0117201
0.0571586
0.114148
0.178424
0.245355
0.310129
0.36797
0.414365
0.445283
0.457495
0.449364
0.420273
0.36311
0.274161
0.160294
0.0510384
-0.016787
-0.049538
-0.0579093
-0.0437988
-0.00963295
0.0408543
0.103445
0.173622
0.24662
0.31752
0.381372
0.433329
0.468783
0.483664
0.475371
0.44207
0.3734
0.263524
0.142624
0.012138
-0.0667573
-0.102482
-0.109079
-0.0897332
-0.0478978
0.0117983
0.0845168
0.165353
0.249288
0.331174
0.405751
0.467682
0.511597
0.532373
0.526247
0.490024
0.409971
0.278296
0.092136
-0.0606389
-0.149834
-0.1862
-0.187655
-0.158997
-0.104954
-0.0312378
0.0565786
0.153144
0.253158
0.351228
0.441746
0.518801
0.576108
0.607246
0.606977
0.570355
0.479671
0.324884
0.000816019
-0.175702
-0.273658
-0.306895
-0.298292
-0.254856
-0.182969
-0.0896359
0.018768
0.136483
0.258021
0.377852
0.490108
0.58832
0.665177
0.712684
0.723671
0.690749
0.591031
0.411399
-0.141962
-0.34393
-0.4478
-0.472035
-0.446321
-0.380828
-0.284101
-0.164655
-0.0296445
0.114935
0.263664
0.411153
0.551524
0.677911
0.781965
0.853837
0.883815
0.860989
0.755267
0.548826
-0.350882
-0.57989
-0.684419
-0.690439
-0.637457
-0.540194
-0.409972
-0.256961
-0.0889068
0.0883393
0.269899
0.451028
0.626323
0.788904
0.929558
1.03639
1.09642
1.09367
0.987601
0.752598
-0.647132
-0.903685
-0.999047
-0.972201
-0.877216
-0.735215
-0.560886
-0.365966
-0.158307
0.0570743
0.276607
0.496991
0.714086
0.921725
1.11035
1.26608
1.37202
1.40508
1.30921
1.04521
-1.06308
-1.34388
-1.41146
-1.32819
-1.16977
-0.965838
-0.734661
-0.488918
-0.235545
0.0224
0.283792
0.547918
0.813081
1.07504
1.325
1.54778
1.72231
1.81612
1.75026
1.46113
-1.65198
-1.94223
-1.94612
-1.76839
-1.51566
-1.22753
-0.92491
-0.619676
-0.315975
-0.0131872
0.291554
0.601624
0.919378
1.24433
1.57051
1.88335
2.15861
2.35291
2.35481
2.05681
-2.50792
-2.76062
-2.63058
-2.29739
-1.90715
-1.5076
-1.1185
-0.747162
-0.391794
-0.0456933
0.299887
0.654142
1.02543
1.41957
1.83677
2.26718
2.68743
3.04509
3.1877
2.93104
-3.80003
-3.88707
-3.48935
-2.90667
-2.32193
-1.78093
-1.29323
-0.854359
-0.451796
-0.0697925
0.308239
0.698953
1.1187
1.58266
2.10224
2.67991
3.30279
3.91969
4.34028
4.25901
-5.83246
-5.43571
-4.53244
-3.56807
-2.7203
-2.00973
-1.41903
-0.920091
-0.48306
-0.0799966
0.31501
0.727068
1.182
1.70749
2.33286
3.08518
3.97937
4.98926
5.92969
6.35123
-9.28487
-7.55097
-5.69686
-4.18851
-3.01863
-2.12956
-1.45169
-0.916893
-0.470842
-0.07154
0.31598
0.724458
1.18888
1.75124
2.46588
3.40102
4.62562
6.19288
8.10495
9.89567
-15.9314
-10.3233
-6.56605
-4.38392
-2.94828
-1.96849
-1.28693
-0.785239
-0.385456
-0.0364854
0.299959
0.658463
1.07735
1.60781
2.32801
3.35757
4.85665
7.11561
10.9622
16.6723
-27.0777
-12.99
-6.27685
-3.58849
-2.19642
-1.36866
-0.848499
-0.489851
-0.212791
0.0269841
0.2591
0.509293
0.807142
1.19676
1.75777
2.63773
4.10083
6.88632
13.7135
27.916
)
;

boundaryField
{
    movingWall
    {
        type            zeroGradient;
    }
    fixedWalls
    {
        type            zeroGradient;
    }
    frontAndBack
    {
        type            empty;
    }
}


// ************************************************************************* //
