/*--------------------------------*- C++ -*----------------------------------*\
  =========                 |
  \\      /  F ield         | OpenFOAM: The Open Source CFD Toolbox
   \\    /   O peration     | Website:  https://openfoam.org
    \\  /    A nd           | Version:  6
     \\/     M anipulation  |
\*---------------------------------------------------------------------------*/
FoamFile
{
    version     2.0;
    format      ascii;
    class       volScalarField;
    location    "0.05";
    object      p;
}
// * * * * * * * * * * * * * * * * * * * * * * * * * * * * * * * * * * * * * //

dimensions      [0 2 -2 0 0 0 0];

internalField   nonuniform List<scalar> 
400
(
1.32991e-05
-0.0231664
-0.0520321
-0.0742749
-0.0825877
-0.0736984
-0.0473621
-0.00551175
0.0484302
0.110068
0.174434
0.236339
0.290716
0.333007
0.359625
0.368537
0.360001
0.337428
0.308339
0.285164
0.0229922
-0.000828978
-0.0234813
-0.0388159
-0.0432393
-0.0344541
-0.0121626
0.022242
0.0661652
0.116187
0.168383
0.218632
0.262928
0.297713
0.320254
0.32907
0.324465
0.308847
0.286
0.262219
0.0535273
0.0205177
-0.0039936
-0.0181369
-0.0217312
-0.013525
0.0064601
0.0368756
0.0754514
0.119262
0.164962
0.20903
0.248031
0.27889
0.299181
0.30745
0.30367
0.289199
0.264436
0.231458
0.0816012
0.0359355
0.00545604
-0.0106729
-0.0150642
-0.00739348
0.0118431
0.0410531
0.0779574
0.119783
0.163416
0.205589
0.243076
0.272916
0.292625
0.300458
0.295886
0.279342
0.248478
0.202755
0.100702
0.0416613
0.00403292
-0.0149406
-0.0202644
-0.0124368
0.00752451
0.0376556
0.0755034
0.118267
0.162882
0.206143
0.244843
0.27593
0.296671
0.304876
0.29944
0.279964
0.241753
0.182453
0.106153
0.0334662
-0.0116187
-0.0333606
-0.0389514
-0.0296712
-0.00710821
0.0263041
0.0678179
0.114477
0.163137
0.21052
0.253294
0.288175
0.312025
0.322076
0.316562
0.29427
0.248341
0.175034
0.0938989
0.00715522
-0.0452621
-0.0689963
-0.0734696
-0.0608088
-0.033264
0.00615997
0.0543252
0.108034
0.163982
0.21874
0.268763
0.31042
0.340044
0.354135
0.350133
0.3259
0.272324
0.184391
0.059608
-0.0418596
-0.101094
-0.125297
-0.12646
-0.107764
-0.0722772
-0.0236914
0.0343953
0.0985098
0.165172
0.230789
0.291575
0.343499
0.382248
0.403424
0.403447
0.378988
0.318265
0.214784
-0.00204719
-0.119166
-0.184199
-0.20641
-0.201064
-0.172777
-0.125677
-0.0642726
0.00734052
0.0854427
0.166443
0.24666
0.322124
0.388406
0.440474
0.472831
0.480562
0.458665
0.391869
0.271637
-0.0980917
-0.231959
-0.300923
-0.31731
-0.300861
-0.258247
-0.194978
-0.116514
-0.027426
0.0684374
0.167547
0.266318
0.360766
0.446169
0.516763
0.565755
0.586467
0.571488
0.500673
0.362333
-0.238192
-0.389846
-0.459296
-0.46384
-0.429663
-0.366389
-0.281305
-0.18091
-0.0701246
0.0473286
0.168297
0.289633
0.407657
0.517619
0.613132
0.68597
0.727194
0.725926
0.654936
0.497288
-0.436258
-0.606052
-0.669547
-0.652648
-0.591098
-0.498678
-0.384832
-0.257037
-0.120241
0.0224137
0.168659
0.316315
0.462543
0.603054
0.731193
0.837341
0.909839
0.932954
0.868955
0.691721
-0.713527
-0.899357
-0.944666
-0.890837
-0.787828
-0.654961
-0.503965
-0.342891
-0.176047
-0.00525772
0.168845
0.345812
0.524441
0.701724
0.871496
1.02322
1.14233
1.20671
1.16312
0.968958
-1.10497
-1.29724
-1.3007
-1.18485
-1.02
-0.831964
-0.63414
-0.434018
-0.234041
-0.0335908
0.169358
0.377086
0.591108
0.810946
1.03232
1.24506
1.43244
1.56486
1.56719
1.36718
-1.67255
-1.84046
-1.75567
-1.53743
-1.28212
-1.02081
-0.76611
-0.522465
-0.288396
-0.059264
0.170861
0.408144
0.658125
0.924565
1.20736
1.49952
1.78483
2.02754
2.12492
1.95303
-2.52798
-2.58718
-2.3255
-1.9425
-1.55885
-1.20422
-0.884431
-0.596172
-0.330883
-0.0779384
0.173791
0.43544
0.717906
1.03124
1.3829
1.77419
2.19597
2.6132
2.89776
2.84431
-3.87295
-3.61301
-3.01647
-2.38084
-1.82323
-1.35641
-0.968434
-0.640387
-0.352246
-0.0853131
0.17773
0.453653
0.759686
1.11428
1.53691
2.04547
2.64949
3.33064
3.96435
4.24907
-6.15937
-5.01371
-3.78642
-2.79027
-2.01928
-1.43417
-0.988418
-0.636623
-0.342531
-0.0781166
0.179957
0.453544
0.766
1.14536
1.62786
2.25903
3.08472
4.13979
5.42507
6.6275
-10.5695
-6.84898
-4.35763
-2.91497
-1.96812
-1.32306
-0.875117
-0.545553
-0.282403
-0.0515822
0.172459
0.412809
0.695062
1.05338
1.53997
2.23478
3.24508
4.76457
7.34527
11.1677
-17.9825
-8.6112
-4.15442
-2.37807
-1.46166
-0.918391
-0.578386
-0.344514
-0.163426
-0.0055209
0.148993
0.317312
0.51918
0.78401
1.16485
1.76031
2.74774
4.62121
9.19198
18.678
)
;

boundaryField
{
    movingWall
    {
        type            zeroGradient;
    }
    fixedWalls
    {
        type            zeroGradient;
    }
    frontAndBack
    {
        type            empty;
    }
}


// ************************************************************************* //
