/*--------------------------------*- C++ -*----------------------------------*\
  =========                 |
  \\      /  F ield         | OpenFOAM: The Open Source CFD Toolbox
   \\    /   O peration     | Website:  https://openfoam.org
    \\  /    A nd           | Version:  6
     \\/     M anipulation  |
\*---------------------------------------------------------------------------*/
FoamFile
{
    version     2.0;
    format      ascii;
    class       surfaceScalarField;
    location    "0.015";
    object      phi;
}
// * * * * * * * * * * * * * * * * * * * * * * * * * * * * * * * * * * * * * //

dimensions      [0 3 -1 0 0 0 0];

internalField   nonuniform List<scalar> 
760
(
-1.95409e-09
1.95418e-09
-4.70803e-08
4.51263e-08
-1.24882e-07
7.7802e-08
-2.17806e-07
9.29232e-08
-3.12193e-07
9.43876e-08
-3.98622e-07
8.64289e-08
-4.70965e-07
7.23427e-08
-5.25385e-07
5.44199e-08
-5.5953e-07
3.41452e-08
-5.72033e-07
1.25023e-08
-5.62275e-07
-9.75765e-09
-5.3036e-07
-3.19155e-08
-4.77245e-07
-5.31147e-08
-4.05073e-07
-7.21724e-08
-3.17735e-07
-8.73373e-08
-2.21699e-07
-9.60357e-08
-1.2694e-07
-9.47589e-08
-4.77071e-08
-7.92332e-08
-1.89678e-09
-4.58103e-08
-1.8967e-09
-4.42446e-08
4.61989e-08
-1.70166e-07
1.71048e-07
-3.54093e-07
2.6173e-07
-5.66285e-07
3.05115e-07
-7.80519e-07
3.08621e-07
-9.7698e-07
2.82889e-07
-1.14188e-06
2.37245e-07
-1.26613e-06
1.78664e-07
-1.34397e-06
1.11987e-07
-1.37208e-06
4.06176e-08
-1.34908e-06
-3.27617e-08
-1.27541e-06
-1.05589e-07
-1.15364e-06
-1.74883e-07
-9.89132e-07
-2.36679e-07
-7.91085e-07
-2.85384e-07
-5.73887e-07
-3.13234e-07
-3.5833e-07
-3.10316e-07
-1.71678e-07
-2.65885e-07
-4.4373e-08
-1.73115e-07
-4.627e-08
-7.95311e-08
1.2573e-07
-2.72147e-07
3.63663e-07
-5.36874e-07
5.26456e-07
-8.34529e-07
6.0277e-07
-1.1317e-06
6.05788e-07
-1.40285e-06
5.54043e-07
-1.62991e-06
4.6431e-07
-1.80076e-06
3.49507e-07
-1.90764e-06
2.1887e-07
-1.94608e-06
7.90587e-08
-1.91423e-06
-6.46178e-08
-1.81273e-06
-2.0709e-07
-1.6451e-06
-3.42512e-07
-1.41857e-06
-4.63207e-07
-1.14538e-06
-5.58572e-07
-8.44369e-07
-6.14245e-07
-5.42324e-07
-6.12362e-07
-2.7405e-07
-5.34159e-07
-7.96742e-08
-3.67491e-07
-1.25944e-07
-1.04604e-07
2.30334e-07
-3.51008e-07
6.10067e-07
-6.82034e-07
8.57482e-07
-1.04845e-06
9.69188e-07
-1.41056e-06
9.67895e-07
-1.73878e-06
8.82263e-07
-2.01245e-06
7.37977e-07
-2.21782e-06
5.54879e-07
-2.3462e-06
3.47249e-07
-2.39255e-06
1.25407e-07
-2.35473e-06
-1.02434e-07
-2.23336e-06
-3.28457e-07
-2.03224e-06
-5.43636e-07
-1.75936e-06
-7.3608e-07
-1.42856e-06
-8.89378e-07
-1.06142e-06
-9.81387e-07
-6.89159e-07
-9.8462e-07
-3.53373e-07
-8.69944e-07
-1.04644e-07
-6.1622e-07
-2.30588e-07
-1.24883e-07
3.55218e-07
-4.1905e-07
9.04234e-07
-8.10943e-07
1.24938e-06
-1.24062e-06
1.39887e-06
-1.66166e-06
1.38893e-06
-2.04067e-06
1.26127e-06
-2.35505e-06
1.05236e-06
-2.59026e-06
7.90092e-07
-2.73733e-06
4.94316e-07
-2.79109e-06
1.79167e-07
-2.74922e-06
-1.44303e-07
-2.61203e-06
-4.65652e-07
-2.38298e-06
-7.72681e-07
-2.07004e-06
-1.04902e-06
-1.68773e-06
-1.27169e-06
-1.25976e-06
-1.40935e-06
-8.21746e-07
-1.42264e-06
-4.22815e-07
-1.26888e-06
-1.25032e-07
-9.14003e-07
-3.5562e-07
-1.45326e-07
5.00543e-07
-4.89231e-07
1.24814e-06
-9.45462e-07
1.70561e-06
-1.44197e-06
1.89538e-06
-1.92453e-06
1.87149e-06
-2.35562e-06
1.69236e-06
-2.71104e-06
1.40778e-06
-2.97603e-06
1.05509e-06
-3.14195e-06
6.60233e-07
-3.2039e-06
2.4111e-07
-3.15941e-06
-1.88783e-07
-3.0082e-06
-6.16867e-07
-2.75276e-06
-1.02812e-06
-2.40019e-06
-1.40159e-06
-1.96494e-06
-1.70694e-06
-1.47256e-06
-1.90173e-06
-9.63585e-07
-1.93162e-06
-4.96237e-07
-1.73622e-06
-1.4606e-07
-1.26418e-06
-5.0168e-07
-1.69929e-07
6.70472e-07
-5.72997e-07
1.65121e-06
-1.10506e-06
2.23767e-06
-1.67923e-06
2.46955e-06
-2.23188e-06
2.42415e-06
-2.72098e-06
2.18145e-06
-3.12114e-06
1.80794e-06
-3.4182e-06
1.35214e-06
-3.60461e-06
8.46646e-07
-3.67627e-06
3.12768e-07
-3.63069e-06
-2.34359e-07
-3.46658e-06
-7.80982e-07
-3.18466e-06
-1.31004e-06
-2.79002e-06
-1.79623e-06
-2.29599e-06
-2.20097e-06
-1.72939e-06
-2.46832e-06
-1.1363e-06
-2.52471e-06
-5.86272e-07
-2.28625e-06
-1.72062e-07
-1.67839e-06
-6.73742e-07
-2.02306e-07
8.72777e-07
-6.81005e-07
2.12991e-06
-1.30761e-06
2.86427e-06
-1.97591e-06
3.13785e-06
-2.61088e-06
3.05912e-06
-3.16587e-06
2.73644e-06
-3.61528e-06
2.25736e-06
-3.94692e-06
1.68378e-06
-4.1556e-06
1.05533e-06
-4.23881e-06
3.95978e-07
-4.19426e-06
-2.78908e-07
-4.01919e-06
-9.56054e-07
-3.7114e-06
-1.61783e-06
-3.27228e-06
-2.23535e-06
-2.71216e-06
-2.76109e-06
-2.05779e-06
-3.12269e-06
-1.36097e-06
-3.22153e-06
-7.0546e-07
-2.94176e-06
-2.07216e-07
-2.17663e-06
-8.80958e-07
-2.4651e-07
1.11929e-06
-8.24846e-07
2.70824e-06
-1.57152e-06
3.61095e-06
-2.35451e-06
3.92083e-06
-3.0852e-06
3.78981e-06
-3.71299e-06
3.36423e-06
-4.21421e-06
2.75857e-06
-4.58093e-06
2.0505e-06
-4.8123e-06
1.2867e-06
-4.90867e-06
4.92352e-07
-4.86837e-06
-3.1921e-07
-4.68664e-06
-1.13779e-06
-4.35679e-06
-1.94768e-06
-3.87402e-06
-2.71812e-06
-3.24246e-06
-3.39265e-06
-2.4859e-06
-3.87925e-06
-1.6609e-06
-4.04654e-06
-8.68468e-07
-3.73419e-06
-2.56593e-07
-2.78851e-06
-1.13755e-06
-3.08117e-07
1.4274e-06
-1.01913e-06
3.41926e-06
-1.91792e-06
4.50974e-06
-2.8379e-06
4.84081e-06
-3.67525e-06
4.62716e-06
-4.37789e-06
4.06687e-06
-4.92784e-06
3.30852e-06
-5.32523e-06
2.44789e-06
-5.57642e-06
1.53789e-06
-5.68649e-06
6.02424e-07
-5.65509e-06
-3.50615e-07
-5.47496e-06
-1.31792e-06
-5.13303e-06
-2.28961e-06
-4.61476e-06
-3.23639e-06
-3.91317e-06
-4.09424e-06
-3.04369e-06
-4.74874e-06
-2.06404e-06
-5.02618e-06
-1.09468e-06
-4.70355e-06
-3.27527e-07
-3.55566e-06
-1.46508e-06
-3.95529e-07
1.82293e-06
-1.2833e-06
4.30703e-06
-2.3711e-06
5.59754e-06
-3.44737e-06
5.91708e-06
-4.39368e-06
5.57347e-06
-5.16202e-06
4.83521e-06
-5.74667e-06
3.89318e-06
-6.16129e-06
2.86251e-06
-6.42338e-06
1.79999e-06
-6.54514e-06
7.24185e-07
-6.52865e-06
-3.67113e-07
-6.36388e-06
-1.48268e-06
-6.0294e-06
-2.62409e-06
-5.49667e-06
-3.76913e-06
-4.74058e-06
-4.85033e-06
-3.75906e-06
-5.73025e-06
-2.60275e-06
-6.1825e-06
-1.41013e-06
-5.89617e-06
-4.31238e-07
-4.53455e-06
-1.89632e-06
-5.21508e-07
2.34444e-06
-1.64207e-06
5.42759e-06
-2.95478e-06
6.91025e-06
-4.19336e-06
7.15567e-06
-5.23098e-06
6.61109e-06
-6.03476e-06
5.63898e-06
-6.6213e-06
4.47972e-06
-7.02504e-06
3.26626e-06
-7.2792e-06
2.05415e-06
-7.40577e-06
8.50753e-07
-7.41067e-06
-3.62217e-07
-7.28146e-06
-1.61189e-06
-6.98701e-06
-2.91854e-06
-6.4806e-06
-4.27553e-06
-5.71045e-06
-5.62048e-06
-4.64339e-06
-6.79731e-06
-3.30674e-06
-7.51914e-06
-1.84702e-06
-7.35589e-06
-5.84542e-07
-5.79703e-06
-2.48086e-06
-7.04811e-07
3.04925e-06
-2.12233e-06
6.84511e-06
-3.67909e-06
8.46701e-06
-5.05216e-06
8.52873e-06
-6.12434e-06
7.68327e-06
-6.89723e-06
6.41187e-06
-7.42372e-06
5.00621e-06
-7.76706e-06
3.6096e-06
-7.98012e-06
2.26721e-06
-8.09665e-06
9.67283e-07
-8.12783e-06
-3.31039e-07
-8.06015e-06
-1.67956e-06
-7.8535e-06
-3.12519e-06
-7.44098e-06
-4.68805e-06
-6.73623e-06
-6.32523e-06
-5.65762e-06
-7.87593e-06
-4.18214e-06
-8.99462e-06
-2.43678e-06
-9.10125e-06
-8.11094e-07
-7.42271e-06
-3.29195e-06
-9.71467e-07
4.02072e-06
-2.74174e-06
8.61538e-06
-4.50963e-06
1.02349e-05
-5.91836e-06
9.93746e-06
-6.90021e-06
8.66513e-06
-7.52106e-06
7.03272e-06
-7.88591e-06
5.37106e-06
-8.09248e-06
3.81616e-06
-8.21383e-06
2.38855e-06
-8.2948e-06
1.04825e-06
-8.35233e-06
-2.73502e-07
-8.37457e-06
-1.65732e-06
-8.31684e-06
-3.18293e-06
-8.09595e-06
-4.90894e-06
-7.58881e-06
-6.83236e-06
-6.64922e-06
-8.81552e-06
-5.16594e-06
-1.04779e-05
-3.18987e-06
-1.10773e-05
-1.14067e-06
-9.47191e-06
-4.43262e-06
-1.35338e-06
5.37409e-06
-3.47892e-06
1.07409e-05
-5.30412e-06
1.20601e-05
-6.52087e-06
1.11542e-05
-7.18423e-06
9.32849e-06
-7.46157e-06
7.31006e-06
-7.52032e-06
5.42981e-06
-7.48915e-06
3.785e-06
-7.45363e-06
2.35304e-06
-7.46347e-06
1.05809e-06
-7.5395e-06
-1.9748e-07
-7.67526e-06
-1.52156e-06
-7.83136e-06
-3.02682e-06
-7.92247e-06
-4.81783e-06
-7.80126e-06
-6.95357e-06
-7.25419e-06
-9.36259e-06
-6.04289e-06
-1.16892e-05
-4.04872e-06
-1.30715e-05
-1.60158e-06
-1.1919e-05
-6.03421e-06
-1.8724e-06
7.24649e-06
-4.19797e-06
1.30665e-05
-5.69149e-06
1.35536e-05
-6.29168e-06
1.17544e-05
-6.28418e-06
9.32098e-06
-5.96431e-06
6.99019e-06
-5.54969e-06
5.01519e-06
-5.17628e-06
3.41159e-06
-4.92053e-06
2.09728e-06
-4.82246e-06
9.60026e-07
-4.90082e-06
-1.19115e-07
-5.1583e-06
-1.26409e-06
-5.57568e-06
-2.60944e-06
-6.09281e-06
-4.3007e-06
-6.57503e-06
-6.47135e-06
-6.77315e-06
-9.16447e-06
-6.3112e-06
-1.21511e-05
-4.78616e-06
-1.45965e-05
-2.18871e-06
-1.45165e-05
-8.22291e-06
-2.47139e-06
9.71788e-06
-4.45962e-06
1.50547e-05
-4.84834e-06
1.39424e-05
-4.18445e-06
1.10905e-05
-3.07738e-06
8.21392e-06
-1.91642e-06
5.82922e-06
-9.06437e-07
4.00521e-06
-1.36186e-07
2.64134e-06
3.64532e-07
1.59657e-06
5.87455e-07
7.37102e-07
5.25713e-07
-5.73734e-08
1.66026e-07
-9.04398e-07
-5.08099e-07
-1.93532e-06
-1.49789e-06
-3.31091e-06
-2.7456e-06
-5.22364e-06
-4.0557e-06
-7.85436e-06
-4.98961e-06
-1.12172e-05
-4.80169e-06
-1.47845e-05
-2.76306e-06
-1.65551e-05
-1.0986e-05
-2.78246e-06
1.25003e-05
-3.04918e-06
1.53214e-05
-1.08556e-06
1.19787e-05
1.54834e-06
8.45659e-06
4.03379e-06
5.72847e-06
6.0751e-06
3.78792e-06
7.61696e-06
2.46334e-06
8.69724e-06
1.56106e-06
9.37311e-06
9.20697e-07
9.68708e-06
4.23128e-07
9.65292e-06
-2.32147e-08
9.24964e-06
-5.01117e-07
8.41947e-06
-1.10515e-06
7.07383e-06
-1.96527e-06
5.12273e-06
-3.27254e-06
2.55945e-06
-5.29109e-06
-3.50427e-07
-8.30736e-06
-2.72301e-06
-1.24119e-05
-2.79516e-06
-1.6483e-05
-1.37811e-05
-1.009e-06
1.35093e-05
3.43093e-06
1.08815e-05
8.92945e-06
6.48023e-06
1.35332e-05
3.85281e-06
1.69532e-05
2.30848e-06
1.93573e-05
1.38381e-06
2.0988e-05
8.32694e-07
2.20507e-05
4.98326e-07
2.26889e-05
2.82503e-07
2.29862e-05
1.25835e-07
2.29732e-05
-1.01794e-08
2.2629e-05
-1.56931e-07
2.18747e-05
-3.50871e-07
2.05581e-05
-6.48645e-07
1.84366e-05
-1.15105e-06
1.5188e-05
-2.0425e-06
1.05349e-05
-3.65429e-06
4.68722e-06
-6.56418e-06
-3.87628e-07
-1.14081e-05
-1.41688e-05
1.35093e-05
2.43909e-05
3.08711e-05
3.47239e-05
3.70324e-05
3.84162e-05
3.92489e-05
3.97472e-05
4.00297e-05
4.01555e-05
4.01454e-05
3.99884e-05
3.96376e-05
3.89889e-05
3.78379e-05
3.57954e-05
3.21411e-05
2.55769e-05
1.41688e-05
)
;

boundaryField
{
    movingWall
    {
        type            calculated;
        value           uniform 0;
    }
    fixedWalls
    {
        type            calculated;
        value           uniform 0;
    }
    frontAndBack
    {
        type            empty;
        value           nonuniform 0();
    }
}


// ************************************************************************* //
