/*--------------------------------*- C++ -*----------------------------------*\
  =========                 |
  \\      /  F ield         | OpenFOAM: The Open Source CFD Toolbox
   \\    /   O peration     | Website:  https://openfoam.org
    \\  /    A nd           | Version:  6
     \\/     M anipulation  |
\*---------------------------------------------------------------------------*/
FoamFile
{
    version     2.0;
    format      ascii;
    class       surfaceScalarField;
    location    "0.035";
    object      phi;
}
// * * * * * * * * * * * * * * * * * * * * * * * * * * * * * * * * * * * * * //

dimensions      [0 3 -1 0 0 0 0];

internalField   nonuniform List<scalar> 
760
(
1.48114e-08
-1.48351e-08
-2.06869e-08
3.54975e-08
-1.12556e-07
9.18693e-08
-2.4462e-07
1.32064e-07
-3.96763e-07
1.52143e-07
-5.49584e-07
1.52822e-07
-6.86293e-07
1.36709e-07
-7.93584e-07
1.07291e-07
-8.61912e-07
6.83282e-08
-8.85521e-07
2.36098e-08
-8.62427e-07
-2.30931e-08
-7.94428e-07
-6.79992e-08
-6.87159e-07
-1.07269e-07
-5.50164e-07
-1.36995e-07
-3.96873e-07
-1.53292e-07
-2.44279e-07
-1.52594e-07
-1.11989e-07
-1.32291e-07
-2.02088e-08
-9.178e-08
1.50011e-08
-3.52095e-08
1.50014e-08
-3.28213e-08
1.7987e-08
-1.77346e-07
1.80022e-07
-4.30707e-07
3.4523e-07
-7.62803e-07
4.6416e-07
-1.13346e-06
5.22805e-07
-1.50134e-06
5.20702e-07
-1.82902e-06
4.64383e-07
-2.08583e-06
3.64102e-07
-2.24928e-06
2.31785e-07
-2.30566e-06
7.99888e-08
-2.25024e-06
-7.85151e-08
-2.0874e-06
-2.30842e-07
-1.83064e-06
-3.64026e-07
-1.50245e-06
-4.65183e-07
-1.13371e-06
-5.22039e-07
-7.62196e-07
-5.24106e-07
-4.29637e-07
-4.6485e-07
-1.76385e-07
-3.45032e-07
-3.239e-08
-1.79204e-07
-1.73882e-08
-9.02796e-08
1.08267e-07
-3.52991e-07
4.42733e-07
-7.60644e-07
7.52882e-07
-1.26715e-06
9.70667e-07
-1.81735e-06
1.07301e-06
-2.35538e-06
1.05873e-06
-2.83058e-06
9.39582e-07
-3.2012e-06
7.34725e-07
-3.43646e-06
4.67043e-07
-3.5175e-06
1.6103e-07
-3.43784e-06
-1.5818e-07
-3.2035e-06
-4.65176e-07
-2.83305e-06
-7.34476e-07
-2.35724e-06
-9.40995e-07
-1.81807e-06
-1.06121e-06
-1.26666e-06
-1.07551e-06
-7.59396e-07
-9.72116e-07
-3.51741e-07
-7.52688e-07
-8.96684e-08
-4.41277e-07
-1.07056e-07
-1.42797e-07
2.51065e-07
-5.21243e-07
8.21179e-07
-1.07877e-06
1.31041e-06
-1.74906e-06
1.64096e-06
-2.46159e-06
1.78553e-06
-3.14829e-06
1.74543e-06
-3.74887e-06
1.54017e-06
-4.2143e-06
1.20015e-06
-4.50864e-06
7.61385e-07
-4.60999e-06
2.62386e-07
-4.51081e-06
-2.57361e-07
-4.21804e-06
-7.5795e-07
-3.75315e-06
-1.19936e-06
-3.15197e-06
-1.54218e-06
-2.4638e-06
-1.74938e-06
-1.74952e-06
-1.78979e-06
-1.07789e-06
-1.64375e-06
-5.19958e-07
-1.31062e-06
-1.42062e-07
-8.19173e-07
-2.49118e-07
-1.91171e-07
4.42235e-07
-6.82253e-07
1.31226e-06
-1.38717e-06
2.01532e-06
-2.21665e-06
2.47044e-06
-3.08338e-06
2.65227e-06
-3.90761e-06
2.56966e-06
-4.62125e-06
2.25382e-06
-5.17039e-06
1.74929e-06
-5.51626e-06
1.10725e-06
-5.63547e-06
3.81596e-07
-5.51994e-06
-3.72898e-07
-5.17688e-06
-1.101e-06
-4.62907e-06
-1.74717e-06
-3.91503e-06
-2.25623e-06
-3.08893e-06
-2.57547e-06
-2.21957e-06
-2.65915e-06
-1.38768e-06
-2.47564e-06
-6.81448e-07
-2.01685e-06
-1.90443e-07
-1.31018e-06
-4.39562e-07
-2.38342e-07
6.80577e-07
-8.42003e-07
1.91592e-06
-1.69471e-06
2.86803e-06
-2.68202e-06
3.45775e-06
-3.69849e-06
3.66874e-06
-4.65281e-06
3.52397e-06
-5.47056e-06
3.07157e-06
-6.09502e-06
2.37375e-06
-6.48662e-06
1.49885e-06
-6.62191e-06
5.16887e-07
-6.49276e-06
-5.02056e-07
-6.10607e-06
-1.48768e-06
-5.48436e-06
-2.36889e-06
-4.66673e-06
-3.07386e-06
-3.7101e-06
-3.5321e-06
-2.68972e-06
-3.67953e-06
-1.69826e-06
-3.4671e-06
-8.42554e-07
-2.87256e-06
-2.37876e-07
-1.91485e-06
-6.77437e-07
-2.87356e-07
9.67932e-07
-1.00749e-06
2.63606e-06
-2.0111e-06
3.87163e-06
-3.15593e-06
4.60258e-06
-4.31728e-06
4.83009e-06
-5.39295e-06
4.59964e-06
-6.30419e-06
3.98281e-06
-6.99406e-06
3.06362e-06
-7.42455e-06
1.92935e-06
-7.57384e-06
6.66175e-07
-7.43428e-06
-6.41617e-07
-7.01183e-06
-1.91013e-06
-6.32695e-06
-3.05377e-06
-5.41684e-06
-3.98397e-06
-4.33845e-06
-4.61049e-06
-3.17151e-06
-4.84647e-06
-2.01998e-06
-4.61863e-06
-1.01069e-06
-3.88185e-06
-2.87554e-07
-2.63799e-06
-9.64991e-07
-3.4108e-07
1.30901e-06
-1.18534e-06
3.48032e-06
-2.3445e-06
5.0308e-06
-3.64482e-06
5.90289e-06
-4.94164e-06
6.12692e-06
-6.12378e-06
5.78178e-06
-7.1115e-06
4.97054e-06
-7.8514e-06
3.80352e-06
-8.31035e-06
2.3883e-06
-8.47029e-06
8.26112e-07
-8.32482e-06
-7.87091e-07
-7.87813e-06
-2.35683e-06
-7.14638e-06
-3.78551e-06
-6.16145e-06
-4.9689e-06
-4.97645e-06
-5.79548e-06
-3.67205e-06
-6.15087e-06
-2.36165e-06
-5.92904e-06
-1.19291e-06
-5.05059e-06
-3.42511e-07
-3.48839e-06
-1.3075e-06
-4.02352e-07
1.71136e-06
-1.38156e-06
4.45953e-06
-2.70041e-06
6.34964e-06
-4.14865e-06
7.35114e-06
-5.562e-06
7.54027e-06
-6.82417e-06
7.04395e-06
-7.86001e-06
6.00637e-06
-8.62521e-06
4.56872e-06
-9.09601e-06
2.85911e-06
-9.26102e-06
9.91121e-07
-9.11609e-06
-9.32023e-07
-8.66267e-06
-2.81024e-06
-7.90973e-06
-4.53845e-06
-6.87919e-06
-5.99945e-06
-5.61454e-06
-7.06013e-06
-4.19161e-06
-7.57379e-06
-2.72919e-06
-7.39146e-06
-1.39562e-06
-6.38415e-06
-4.05757e-07
-4.47825e-06
-1.71326e-06
-4.74536e-07
2.1859e-06
-1.6021e-06
5.58709e-06
-3.0811e-06
7.82865e-06
-4.65877e-06
8.92881e-06
-6.15356e-06
9.03506e-06
-7.45129e-06
8.34167e-06
-8.49001e-06
7.04508e-06
-9.2423e-06
5.32101e-06
-9.69965e-06
3.31647e-06
-9.86095e-06
1.15242e-06
-9.72555e-06
-1.06742e-06
-9.2911e-06
-3.24469e-06
-8.55587e-06
-5.27369e-06
-7.52588e-06
-7.02944e-06
-6.22696e-06
-8.35905e-06
-4.72112e-06
-9.07963e-06
-3.12496e-06
-8.98762e-06
-1.62502e-06
-7.88409e-06
-4.8082e-07
-5.62245e-06
-2.19408e-06
-5.62544e-07
2.74844e-06
-1.85379e-06
6.87834e-06
-3.48484e-06
9.4597e-06
-5.15447e-06
1.05984e-05
-6.67064e-06
1.05512e-05
-7.93361e-06
9.60465e-06
-8.90717e-06
8.01864e-06
-9.59092e-06
6.00476e-06
-9.99858e-06
3.72412e-06
-1.01433e-05
1.2971e-06
-1.00293e-05
-1.18139e-06
-9.64946e-06
-3.62452e-06
-8.98765e-06
-5.9355e-06
-8.0271e-06
-7.98999e-06
-6.76562e-06
-9.62053e-06
-5.2383e-06
-1.06069e-05
-3.54656e-06
-1.06794e-05
-1.88792e-06
-9.54273e-06
-5.72738e-07
-6.93763e-06
-2.76682e-06
-6.7453e-07
3.42297e-06
-2.14544e-06
8.34925e-06
-3.90343e-06
1.12177e-05
-5.59642e-06
1.22914e-05
-7.03732e-06
1.19921e-05
-8.16061e-06
1.07279e-05
-8.97277e-06
8.83079e-06
-9.51218e-06
6.54418e-06
-9.82173e-06
4.03367e-06
-9.93233e-06
1.4077e-06
-9.85447e-06
-1.25926e-06
-9.5755e-06
-3.90349e-06
-9.06188e-06
-6.44912e-06
-8.26743e-06
-8.78444e-06
-7.15008e-06
-1.07379e-05
-5.70044e-06
-1.20566e-05
-3.98391e-06
-1.23959e-05
-2.19257e-06
-1.13341e-05
-6.89699e-07
-8.44049e-06
-3.45652e-06
-8.24622e-07
4.24759e-06
-2.48776e-06
1.00124e-05
-4.31511e-06
1.3045e-05
-5.91351e-06
1.38898e-05
-7.13153e-06
1.32102e-05
-7.96759e-06
1.1564e-05
-8.49132e-06
9.35453e-06
-8.79095e-06
6.8438e-06
-8.94313e-06
4.18586e-06
-8.99804e-06
1.46261e-06
-8.97286e-06
-1.28444e-06
-8.84976e-06
-4.02659e-06
-8.57708e-06
-6.72179e-06
-8.07516e-06
-9.28636e-06
-7.25123e-06
-1.15618e-05
-6.03057e-06
-1.32772e-05
-4.41156e-06
-1.40149e-05
-2.54819e-06
-1.31974e-05
-8.457e-07
-1.0143e-05
-4.30222e-06
-1.03673e-06
5.28432e-06
-2.88872e-06
1.18644e-05
-4.66657e-06
1.48229e-05
-5.97632e-06
1.51996e-05
-6.75802e-06
1.39919e-05
-7.11377e-06
1.19197e-05
-7.19601e-06
9.43677e-06
-7.14809e-06
6.79588e-06
-7.07886e-06
4.11662e-06
-7.05472e-06
1.43847e-06
-7.09843e-06
-1.24073e-06
-7.18881e-06
-3.93621e-06
-7.2599e-06
-6.65071e-06
-7.20112e-06
-9.34514e-06
-6.86454e-06
-1.18984e-05
-6.09056e-06
-1.40512e-05
-4.76976e-06
-1.53357e-05
-2.9597e-06
-1.50075e-05
-1.06415e-06
-1.20385e-05
-5.36637e-06
-1.34646e-06
6.63078e-06
-3.33298e-06
1.38509e-05
-4.8289e-06
1.63188e-05
-5.54588e-06
1.59166e-05
-5.60445e-06
1.40504e-05
-5.25279e-06
1.15681e-05
-4.73421e-06
8.91819e-06
-4.23816e-06
6.29983e-06
-3.89235e-06
3.77081e-06
-3.7693e-06
1.31542e-06
-3.89366e-06
-1.11637e-06
-4.24482e-06
-3.58505e-06
-4.75322e-06
-6.1423e-06
-5.29175e-06
-8.8066e-06
-5.66785e-06
-1.15223e-05
-5.63046e-06
-1.40886e-05
-4.91998e-06
-1.60462e-05
-3.40606e-06
-1.65214e-05
-1.37931e-06
-1.40653e-05
-6.74568e-06
-1.78535e-06
8.41613e-06
-3.71183e-06
1.57774e-05
-4.49681e-06
1.71038e-05
-4.17981e-06
1.55996e-05
-3.17585e-06
1.30465e-05
-1.89922e-06
1.02915e-05
-6.60271e-07
7.67924e-06
3.40121e-07
5.29944e-06
9.84936e-07
3.126e-06
1.21428e-06
1.08607e-06
1.00814e-06
-9.10226e-07
3.8069e-07
-2.9576e-06
-6.13406e-07
-5.14821e-06
-1.86079e-06
-7.55922e-06
-3.16087e-06
-1.02222e-05
-4.19787e-06
-1.30516e-05
-4.5447e-06
-1.56994e-05
-3.76874e-06
-1.72974e-05
-1.81922e-06
-1.60148e-05
-8.56491e-06
-2.30057e-06
1.07167e-05
-3.62852e-06
1.71053e-05
-2.97692e-06
1.64522e-05
-1.07671e-06
1.36994e-05
1.28815e-06
1.06816e-05
3.59537e-06
7.98424e-06
5.55056e-06
5.72405e-06
7.00912e-06
3.84087e-06
7.90913e-06
2.22599e-06
8.22743e-06
7.67773e-07
7.95674e-06
-6.39535e-07
7.09855e-06
-2.09941e-06
5.66993e-06
-3.71959e-06
3.72665e-06
-5.61594e-06
1.40831e-06
-7.90388e-06
-9.9122e-07
-1.06521e-05
-2.94122e-06
-1.37494e-05
-3.63749e-06
-1.66011e-05
-2.32306e-06
-1.73292e-05
-1.0888e-05
-2.50006e-06
1.32168e-05
-1.9232e-06
1.65285e-05
1.21795e-06
1.3311e-05
5.15033e-06
9.76697e-06
8.88883e-06
6.94311e-06
1.20277e-05
4.84536e-06
1.44456e-05
3.3062e-06
1.61415e-05
2.14494e-06
1.71504e-05
1.21704e-06
1.75035e-05
4.14753e-07
1.72113e-05
-3.47388e-07
1.62599e-05
-1.14797e-06
1.46137e-05
-2.07341e-06
1.22315e-05
-3.23376e-06
9.10596e-06
-4.77832e-06
5.35025e-06
-6.89637e-06
1.36779e-06
-9.7669e-06
-1.84488e-06
-1.33884e-05
-2.4853e-06
-1.66888e-05
-1.33733e-05
-5.63821e-07
1.37806e-05
4.66718e-06
1.12975e-05
1.11136e-05
6.86467e-06
1.66938e-05
4.18674e-06
2.10202e-05
2.61667e-06
2.4202e-05
1.66354e-06
2.6445e-05
1.0632e-06
2.79295e-05
6.60515e-07
2.87818e-05
3.64656e-07
2.9075e-05
1.21545e-07
2.88329e-05
-1.05202e-07
2.80317e-05
-3.46825e-07
2.6598e-05
-6.39709e-07
2.44024e-05
-1.03812e-06
2.1258e-05
-1.63392e-06
1.69477e-05
-2.58605e-06
1.13488e-05
-4.16807e-06
4.84217e-06
-6.88178e-06
-4.82368e-07
-1.13643e-05
-1.38556e-05
1.37806e-05
2.5078e-05
3.19427e-05
3.61295e-05
3.87461e-05
4.04097e-05
4.14729e-05
4.21334e-05
4.2498e-05
4.26196e-05
4.25144e-05
4.21676e-05
4.15278e-05
4.04897e-05
3.88558e-05
3.62698e-05
3.21017e-05
2.52199e-05
1.38556e-05
)
;

boundaryField
{
    movingWall
    {
        type            calculated;
        value           uniform 0;
    }
    fixedWalls
    {
        type            calculated;
        value           uniform 0;
    }
    frontAndBack
    {
        type            empty;
        value           nonuniform 0();
    }
}


// ************************************************************************* //
