/*--------------------------------*- C++ -*----------------------------------*\
  =========                 |
  \\      /  F ield         | OpenFOAM: The Open Source CFD Toolbox
   \\    /   O peration     | Website:  https://openfoam.org
    \\  /    A nd           | Version:  6
     \\/     M anipulation  |
\*---------------------------------------------------------------------------*/
FoamFile
{
    version     2.0;
    format      ascii;
    class       volVectorField;
    location    "0.075";
    object      U;
}
// * * * * * * * * * * * * * * * * * * * * * * * * * * * * * * * * * * * * * //

dimensions      [0 1 -1 0 0 0 0];

internalField   nonuniform List<vector> 
400
(
(0.000200182 -0.000197701 0)
(6.03733e-05 0.000129179 0)
(-0.00112519 0.000517309 0)
(-0.00314592 0.000782997 0)
(-0.00564878 0.000910898 0)
(-0.00829792 0.000917977 0)
(-0.0108023 0.00082683 0)
(-0.0129241 0.000659473 0)
(-0.0144794 0.000435459 0)
(-0.0153356 0.000172851 0)
(-0.0154124 -0.000109725 0)
(-0.0146859 -0.00039111 0)
(-0.0131971 -0.000646334 0)
(-0.0110604 -0.000846478 0)
(-0.00847046 -0.000960016 0)
(-0.00570207 -0.000956188 0)
(-0.00309682 -0.000811053 0)
(-0.00103321 -0.000516361 0)
(0.000128476 -0.000105941 0)
(0.000221083 0.000215546 0)
(-0.00010081 -8.52332e-05 0)
(-0.00149551 0.00152073 0)
(-0.00508262 0.00320255 0)
(-0.0103109 0.00437758 0)
(-0.0164743 0.00494222 0)
(-0.0228862 0.0049299 0)
(-0.0289072 0.00442157 0)
(-0.0339899 0.00351352 0)
(-0.0377009 0.00230379 0)
(-0.0397279 0.000891179 0)
(-0.039886 -0.000619607 0)
(-0.0381289 -0.00211215 0)
(-0.0345643 -0.00345502 0)
(-0.0294679 -0.00450373 0)
(-0.0232906 -0.00511008 0)
(-0.0166475 -0.00514114 0)
(-0.0102729 -0.00450993 0)
(-0.00493757 -0.00321749 0)
(-0.00137117 -0.00143929 0)
(-5.86236e-05 0.000158994 0)
(-0.000491547 0.00105448 0)
(-0.00330843 0.00512306 0)
(-0.00930071 0.00894149 0)
(-0.0174259 0.0115812 0)
(-0.0266693 0.0128083 0)
(-0.0361138 0.0126617 0)
(-0.0448966 0.0113045 0)
(-0.0522695 0.0089546 0)
(-0.057636 0.00584965 0)
(-0.0605647 0.00223931 0)
(-0.0608005 -0.00160877 0)
(-0.0582802 -0.00539965 0)
(-0.0531513 -0.00880679 0)
(-0.0457901 -0.0114797 0)
(-0.0368093 -0.013069 0)
(-0.0270421 -0.0132736 0)
(-0.0174791 -0.0119126 0)
(-0.00916047 -0.00901708 0)
(-0.00315414 -0.00497211 0)
(-0.000433392 -0.000891269 0)
(-0.000836172 0.00316859 0)
(-0.00501906 0.0107916 0)
(-0.0133783 0.0173447 0)
(-0.0242895 0.0217276 0)
(-0.036394 0.0236427 0)
(-0.0485681 0.0231698 0)
(-0.0597789 0.0205851 0)
(-0.0691381 0.0162597 0)
(-0.0759406 0.0106063 0)
(-0.0796749 0.00406362 0)
(-0.080034 -0.00289672 0)
(-0.0769318 -0.00975651 0)
(-0.0705267 -0.0159452 0)
(-0.061246 -0.0208533 0)
(-0.0498017 -0.0238758 0)
(-0.0371827 -0.0244913 0)
(-0.0245901 -0.0223801 0)
(-0.0133275 -0.0175653 0)
(-0.00486064 -0.010593 0)
(-0.00076351 -0.00289455 0)
(-0.00114532 0.00615863 0)
(-0.00664736 0.0184223 0)
(-0.0173623 0.0282778 0)
(-0.0310457 0.0346071 0)
(-0.0459579 0.0371573 0)
(-0.0607632 0.0361224 0)
(-0.0742799 0.0319406 0)
(-0.0855144 0.025171 0)
(-0.0936875 0.0164265 0)
(-0.0982326 0.00635451 0)
(-0.0987988 -0.00435107 0)
(-0.0952661 -0.0149286 0)
(-0.0877741 -0.0245366 0)
(-0.0767576 -0.0322692 0)
(-0.062982 -0.0372146 0)
(-0.0475565 -0.0385666 0)
(-0.0318848 -0.0357902 0)
(-0.0175673 -0.0288163 0)
(-0.00654338 -0.0182593 0)
(-0.00106541 -0.00577053 0)
(-0.00144716 0.00998916 0)
(-0.00828029 0.0280199 0)
(-0.0214033 0.041786 0)
(-0.0379169 0.0502667 0)
(-0.0556674 0.0533744 0)
(-0.0730979 0.0515139 0)
(-0.0888912 0.0453538 0)
(-0.101975 0.0356844 0)
(-0.111524 0.0233413 0)
(-0.116938 0.00918987 0)
(-0.117826 -0.005852 0)
(-0.114023 -0.0207758 0)
(-0.105615 -0.0344559 0)
(-0.0930016 -0.0456577 0)
(-0.0769541 -0.0531037 0)
(-0.0586691 -0.055615 0)
(-0.0397516 -0.0523288 0)
(-0.0221412 -0.042961 0)
(-0.00833948 -0.0280849 0)
(-0.00137789 -0.00952236 0)
(-0.00176729 0.0146829 0)
(-0.010006 0.0396578 0)
(-0.0256547 0.0579657 0)
(-0.0451004 0.0687892 0)
(-0.0657404 0.0723423 0)
(-0.085794 0.0693597 0)
(-0.103829 0.0608265 0)
(-0.118728 0.0478148 0)
(-0.129656 0.0314032 0)
(-0.136003 0.0126722 0)
(-0.13735 -0.00725116 0)
(-0.13347 -0.0271274 0)
(-0.124366 -0.0455501 0)
(-0.110345 -0.060932 0)
(-0.0921248 -0.0715662 0)
(-0.070937 -0.0757893 0)
(-0.0485685 -0.0722579 0)
(-0.0273326 -0.0603019 0)
(-0.0103997 -0.0403118 0)
(-0.00174073 -0.0142421 0)
(-0.00212756 0.0203111 0)
(-0.0119005 0.0534721 0)
(-0.0302394 0.0769472 0)
(-0.0527199 0.0902516 0)
(-0.0762504 0.0940697 0)
(-0.0988377 0.089615 0)
(-0.118975 0.0782946 0)
(-0.135554 0.0615201 0)
(-0.147781 0.0406284 0)
(-0.155078 0.0168987 0)
(-0.15702 -0.00836877 0)
(-0.153312 -0.0337446 0)
(-0.143835 -0.0575692 0)
(-0.12874 -0.0778975 0)
(-0.1086 -0.0925324 0)
(-0.0845943 -0.0991951 0)
(-0.0586305 -0.095861 0)
(-0.0334023 -0.0812343 0)
(-0.012873 -0.0553122 0)
(-0.00219367 -0.0201074 0)
(-0.00254871 0.0269854 0)
(-0.0140303 0.0696484 0)
(-0.0352421 0.0988667 0)
(-0.0608019 0.114674 0)
(-0.0870857 0.118454 0)
(-0.111924 0.11209 0)
(-0.133808 0.0975407 0)
(-0.151722 0.0766209 0)
(-0.164997 0.0509336 0)
(-0.173151 0.0219218 0)
(-0.175789 -0.00900307 0)
(-0.172558 -0.040295 0)
(-0.163183 -0.0701057 0)
(-0.147579 -0.0961601 0)
(-0.126054 -0.115731 0)
(-0.0995894 -0.125783 0)
(-0.0700843 -0.12336 0)
(-0.0405628 -0.106201 0)
(-0.0159057 -0.0735743 0)
(-0.00277973 -0.0273796 0)
(-0.00305743 0.0348566 0)
(-0.0164687 0.0884034 0)
(-0.0407207 0.123816 0)
(-0.0692671 0.141937 0)
(-0.0979144 0.145171 0)
(-0.124395 0.136329 0)
(-0.14732 0.118076 0)
(-0.165897 0.0926949 0)
(-0.179692 0.0620502 0)
(-0.188416 0.0276911 0)
(-0.191766 -0.00895358 0)
(-0.18936 -0.0463348 0)
(-0.180743 -0.0825288 0)
(-0.165512 -0.115013 0)
(-0.143559 -0.140537 0)
(-0.115452 -0.155187 0)
(-0.0828514 -0.154773 0)
(-0.0489558 -0.135601 0)
(-0.0196508 -0.0956722 0)
(-0.00355286 -0.0364071 0)
(-0.00369981 0.0441289 0)
(-0.0193276 0.109976 0)
(-0.0467331 0.15178 0)
(-0.0779256 0.171665 0)
(-0.108138 0.173538 0)
(-0.135161 0.161466 0)
(-0.157918 0.139002 0)
(-0.17602 0.108956 0)
(-0.189423 0.0734259 0)
(-0.198148 0.0339798 0)
(-0.202075 -0.00806346 0)
(-0.200842 -0.0513096 0)
(-0.193824 -0.0939332 0)
(-0.18023 -0.133324 0)
(-0.159367 -0.165799 0)
(-0.131109 -0.186506 0)
(-0.0965135 -0.189705 0)
(-0.0586189 -0.169648 0)
(-0.0242836 -0.122221 0)
(-0.00459143 -0.0476401 0)
(-0.0045665 0.0551039 0)
(-0.0228096 0.134627 0)
(-0.0533658 0.182545 0)
(-0.0864455 0.203075 0)
(-0.116801 0.202326 0)
(-0.142568 0.186047 0)
(-0.163277 0.158862 0)
(-0.179177 0.124134 0)
(-0.190796 0.0841253 0)
(-0.198592 0.0403041 0)
(-0.202734 -0.00628125 0)
(-0.202961 -0.0545878 0)
(-0.198523 -0.103122 0)
(-0.18822 -0.149441 0)
(-0.170633 -0.189652 0)
(-0.144623 -0.218035 0)
(-0.110124 -0.227053 0)
(-0.0694148 -0.208143 0)
(-0.0300242 -0.153802 0)
(-0.00602199 -0.0616691 0)
(-0.00583838 0.0682779 0)
(-0.0272842 0.162644 0)
(-0.0607365 0.215548 0)
(-0.0942351 0.234732 0)
(-0.122376 0.22952 0)
(-0.144152 0.207833 0)
(-0.160114 0.175497 0)
(-0.171425 0.136375 0)
(-0.179351 0.0927596 0)
(-0.1849 0.0458568 0)
(-0.188618 -0.00373319 0)
(-0.190441 -0.0555319 0)
(-0.189596 -0.108651 0)
(-0.184546 -0.161165 0)
(-0.173096 -0.209362 0)
(-0.152813 -0.246964 0)
(-0.121884 -0.264597 0)
(-0.0808734 -0.250116 0)
(-0.0371522 -0.190828 0)
(-0.00805907 -0.0793003 0)
(-0.00786319 0.0845229 0)
(-0.0333696 0.194302 0)
(-0.0688706 0.249577 0)
(-0.100086 0.264171 0)
(-0.122286 0.252006 0)
(-0.136161 0.22361 0)
(-0.143802 0.185974 0)
(-0.14754 0.143241 0)
(-0.149459 0.0975005 0)
(-0.151141 0.0494987 0)
(-0.153532 -0.00078333 0)
(-0.156852 -0.0536154 0)
(-0.160461 -0.108975 0)
(-0.162686 -0.165852 0)
(-0.160712 -0.221287 0)
(-0.150726 -0.269094 0)
(-0.128583 -0.298477 0)
(-0.0918279 -0.293234 0)
(-0.0459647 -0.233243 0)
(-0.0110594 -0.101673 0)
(-0.0112469 0.105364 0)
(-0.0419044 0.229622 0)
(-0.0771766 0.282159 0)
(-0.101246 0.287322 0)
(-0.111873 0.265229 0)
(-0.112661 0.229107 0)
(-0.10774 0.186683 0)
(-0.10067 0.141897 0)
(-0.0942352 0.0962732 0)
(-0.0904192 0.0498781 0)
(-0.0904701 0.00196206 0)
(-0.0949119 -0.0485756 0)
(-0.103423 -0.10273 0)
(-0.114553 -0.160757 0)
(-0.125328 -0.22112 0)
(-0.130909 -0.278771 0)
(-0.124614 -0.322647 0)
(-0.0995735 -0.332902 0)
(-0.0564758 -0.279861 0)
(-0.015533 -0.130366 0)
(-0.0167921 0.133416 0)
(-0.0533181 0.267597 0)
(-0.0827613 0.308338 0)
(-0.091239 0.29768 0)
(-0.082396 0.262969 0)
(-0.0640528 0.219234 0)
(-0.0424385 0.17383 0)
(-0.0219445 0.129669 0)
(-0.00554231 0.0872406 0)
(0.00481828 0.045762 0)
(0.00787929 0.00376922 0)
(0.00290882 -0.0405639 0)
(-0.0102448 -0.0891731 0)
(-0.0308262 -0.143698 0)
(-0.0565234 -0.204599 0)
(-0.0825014 -0.269272 0)
(-0.100306 -0.3285 0)
(-0.0979758 -0.360997 0)
(-0.0672543 -0.327101 0)
(-0.0218316 -0.167545 0)
(-0.0245838 0.173337 0)
(-0.0649489 0.30403 0)
(-0.0758483 0.318036 0)
(-0.0552572 0.284983 0)
(-0.0176109 0.237337 0)
(0.0249889 0.188837 0)
(0.0654183 0.144452 0)
(0.0996988 0.105017 0)
(0.125673 0.0696071 0)
(0.14214 0.0365986 0)
(0.14829 0.00405078 0)
(0.143411 -0.0302216 0)
(0.126844 -0.0686761 0)
(0.0982204 -0.11401 0)
(0.0581659 -0.168763 0)
(0.00972071 -0.233867 0)
(-0.0393284 -0.304835 0)
(-0.0736737 -0.364049 0)
(-0.0721534 -0.366496 0)
(-0.0286331 -0.216373 0)
(-0.0292819 0.230145 0)
(-0.0622117 0.324819 0)
(-0.0289401 0.291933 0)
(0.0382578 0.234924 0)
(0.110996 0.180626 0)
(0.177406 0.135122 0)
(0.233117 0.0986009 0)
(0.27675 0.0692319 0)
(0.308242 0.0448079 0)
(0.327872 0.0232759 0)
(0.335709 0.00273318 0)
(0.331343 -0.0187551 0)
(0.313765 -0.0434177 0)
(0.28139 -0.0740962 0)
(0.232436 -0.114513 0)
(0.166103 -0.168968 0)
(0.0850197 -0.240056 0)
(0.000906242 -0.321681 0)
(-0.052295 -0.377785 0)
(-0.0272293 -0.27633 0)
(0.00645515 0.275398 0)
(0.0147086 0.288802 0)
(0.127456 0.207622 0)
(0.249078 0.142701 0)
(0.347011 0.0978449 0)
(0.422196 0.067002 0)
(0.478707 0.0456447 0)
(0.519703 0.0303959 0)
(0.547737 0.0188534 0)
(0.564603 0.0093565 0)
(0.571216 0.00066479 0)
(0.567585 -0.00833399 0)
(0.552726 -0.0189162 0)
(0.52445 -0.0329155 0)
(0.479116 -0.0533418 0)
(0.411524 -0.0852522 0)
(0.314543 -0.136456 0)
(0.182853 -0.215978 0)
(0.0497238 -0.315447 0)
(0.023805 -0.304817 0)
(0.298091 0.144436 0)
(0.391684 0.126619 0)
(0.548655 0.0765879 0)
(0.665138 0.0447772 0)
(0.735145 0.0266206 0)
(0.779123 0.0160659 0)
(0.808177 0.00980278 0)
(0.82736 0.00593515 0)
(0.839512 0.00336042 0)
(0.846283 0.00144474 0)
(0.848476 -0.000203004 0)
(0.846244 -0.00188234 0)
(0.839106 -0.00392293 0)
(0.825739 -0.006844 0)
(0.803471 -0.0116507 0)
(0.767131 -0.0204267 0)
(0.704996 -0.0374504 0)
(0.591719 -0.0707372 0)
(0.423747 -0.126834 0)
(0.313475 -0.149799 0)
)
;

boundaryField
{
    movingWall
    {
        type            fixedValue;
        value           uniform (1 0 0);
    }
    fixedWalls
    {
        type            noSlip;
    }
    frontAndBack
    {
        type            empty;
    }
}


// ************************************************************************* //
