/*--------------------------------*- C++ -*----------------------------------*\
  =========                 |
  \\      /  F ield         | OpenFOAM: The Open Source CFD Toolbox
   \\    /   O peration     | Website:  https://openfoam.org
    \\  /    A nd           | Version:  6
     \\/     M anipulation  |
\*---------------------------------------------------------------------------*/
FoamFile
{
    version     2.0;
    format      ascii;
    class       surfaceScalarField;
    location    "0.225";
    object      phi;
}
// * * * * * * * * * * * * * * * * * * * * * * * * * * * * * * * * * * * * * //

dimensions      [0 3 -1 0 0 0 0];

internalField   nonuniform List<scalar> 
760
(
1.15582e-09
-1.15519e-09
-3.57906e-08
3.69464e-08
-1.04088e-07
6.82971e-08
-1.89693e-07
8.56054e-08
-2.81454e-07
9.1761e-08
-3.71343e-07
8.98888e-08
-4.53406e-07
8.20631e-08
-5.22677e-07
6.92712e-08
-5.74398e-07
5.17206e-08
-6.03763e-07
2.93655e-08
-6.0625e-07
2.48677e-09
-5.78482e-07
-2.77679e-08
-5.19514e-07
-5.89686e-08
-4.3226e-07
-8.72538e-08
-3.24626e-07
-1.07634e-07
-2.09724e-07
-1.14901e-07
-1.0463e-07
-1.05094e-07
-2.75536e-08
-7.70769e-08
6.78917e-09
-3.43427e-08
6.78917e-09
-3.76765e-08
3.65212e-08
-1.51255e-07
1.50525e-07
-3.23102e-07
2.40143e-07
-5.29101e-07
2.91605e-07
-7.47225e-07
3.09885e-07
-9.59614e-07
3.02278e-07
-1.15194e-06
2.74384e-07
-1.312e-06
2.29338e-07
-1.42866e-06
1.68381e-07
-1.49149e-06
9.21899e-08
-1.49146e-06
2.45526e-09
-1.42261e-06
-9.66088e-08
-1.28445e-06
-1.97136e-07
-1.08443e-06
-2.87271e-07
-8.39915e-07
-3.52149e-07
-5.78205e-07
-3.76611e-07
-3.33726e-07
-3.49574e-07
-1.4178e-07
-2.69022e-07
-2.89331e-08
-1.4719e-07
-2.21438e-08
-7.51669e-08
1.11688e-07
-2.59707e-07
3.35066e-07
-5.18646e-07
4.99082e-07
-8.1908e-07
5.92039e-07
-1.13233e-06
6.23138e-07
-1.43484e-06
6.04781e-07
-1.70723e-06
5.4678e-07
-1.93285e-06
4.54957e-07
-2.0965e-06
3.32026e-07
-2.18413e-06
1.79821e-07
-2.18372e-06
2.05052e-09
-2.08733e-06
-1.93006e-07
-1.89405e-06
-3.90409e-07
-1.61346e-06
-5.67866e-07
-1.26819e-06
-6.97413e-07
-8.9443e-07
-7.50376e-07
-5.38407e-07
-7.05597e-07
-2.48335e-07
-5.59094e-07
-6.27046e-08
-3.3282e-07
-8.48484e-08
-1.05088e-07
2.16777e-07
-3.50966e-07
5.80943e-07
-6.85053e-07
8.33169e-07
-1.06494e-06
9.71923e-07
-1.45646e-06
1.01466e-06
-1.83245e-06
9.80767e-07
-2.17077e-06
8.85107e-07
-2.45227e-06
7.36453e-07
-2.65916e-06
5.38913e-07
-2.77453e-06
2.95193e-07
-2.78317e-06
1.06907e-08
-2.67383e-06
-3.02343e-07
-2.44289e-06
-6.21348e-07
-2.09889e-06
-9.11866e-07
-1.66679e-06
-1.12952e-06
-1.18985e-06
-1.22731e-06
-7.26615e-07
-1.16883e-06
-3.41139e-07
-9.4457e-07
-8.8148e-08
-5.85811e-07
-1.72996e-07
-1.29614e-07
3.46391e-07
-4.28732e-07
8.80061e-07
-8.2934e-07
1.23378e-06
-1.2798e-06
1.42238e-06
-1.74115e-06
1.47601e-06
-2.18388e-06
1.4235e-06
-2.58462e-06
1.28585e-06
-2.9231e-06
1.07493e-06
-3.17982e-06
7.95632e-07
-3.33506e-06
4.50434e-07
-3.36934e-06
4.49706e-08
-3.26574e-06
-4.05938e-07
-3.01434e-06
-8.72746e-07
-2.61855e-06
-1.30766e-06
-2.10225e-06
-1.64581e-06
-1.51503e-06
-1.81453e-06
-9.30952e-07
-1.75291e-06
-4.36902e-07
-1.43862e-06
-1.11047e-07
-9.11665e-07
-2.84044e-07
-1.51232e-07
4.97623e-07
-4.98816e-07
1.22764e-06
-9.61139e-07
1.6961e-06
-1.47805e-06
1.93929e-06
-2.00652e-06
2.00448e-06
-2.51583e-06
1.93281e-06
-2.9827e-06
1.75272e-06
-3.38694e-06
1.47917e-06
-3.70814e-06
1.11683e-06
-3.92365e-06
6.65952e-07
-4.00833e-06
1.2965e-07
-3.93651e-06
-4.77763e-07
-3.68711e-06
-1.12214e-06
-3.25247e-06
-1.74231e-06
-2.65e-06
-2.24828e-06
-1.93353e-06
-2.531e-06
-1.19679e-06
-2.48965e-06
-5.60463e-07
-2.07494e-06
-1.3927e-07
-1.33286e-06
-4.23314e-07
-1.71989e-07
6.69612e-07
-5.66561e-07
1.62222e-06
-1.08923e-06
2.21876e-06
-1.67187e-06
2.52193e-06
-2.26825e-06
2.60085e-06
-2.84765e-06
2.51222e-06
-3.38837e-06
2.29344e-06
-3.8718e-06
1.9626e-06
-4.27774e-06
1.52277e-06
-4.58096e-06
9.69171e-07
-4.74948e-06
2.98172e-07
-4.7456e-06
-4.8165e-07
-4.53116e-06
-1.33658e-06
-4.07906e-06
-2.19441e-06
-3.39126e-06
-2.93608e-06
-2.51994e-06
-3.40233e-06
-1.58109e-06
-3.4285e-06
-7.43969e-07
-2.91207e-06
-1.82519e-07
-1.89431e-06
-6.05833e-07
-1.9344e-07
8.63051e-07
-6.36163e-07
2.06494e-06
-1.22019e-06
2.80279e-06
-1.86953e-06
3.17127e-06
-2.53556e-06
3.26688e-06
-3.18902e-06
3.16568e-06
-3.81159e-06
2.91601e-06
-4.38827e-06
2.53928e-06
-4.90094e-06
2.03544e-06
-5.323e-06
1.39124e-06
-5.61555e-06
5.90724e-07
-5.72624e-06
-3.70963e-07
-5.5937e-06
-1.46911e-06
-5.16113e-06
-2.62699e-06
-4.40166e-06
-3.69554e-06
-3.35339e-06
-4.4506e-06
-2.1512e-06
-4.63069e-06
-1.02843e-06
-4.03483e-06
-2.53533e-07
-2.66921e-06
-8.59366e-07
-2.16788e-07
1.07984e-06
-7.10747e-07
2.5589e-06
-1.35828e-06
3.45032e-06
-2.07488e-06
3.88788e-06
-2.8103e-06
4.0023e-06
-3.53833e-06
3.89371e-06
-4.24614e-06
3.62383e-06
-4.92481e-06
3.21795e-06
-5.56099e-06
2.67161e-06
-6.12932e-06
1.95956e-06
-6.5856e-06
1.04701e-06
-6.86243e-06
-9.41295e-08
-6.87106e-06
-1.46049e-06
-6.51523e-06
-2.98281e-06
-5.72297e-06
-4.48781e-06
-4.49742e-06
-5.67615e-06
-2.97618e-06
-6.15192e-06
-1.46388e-06
-5.54714e-06
-3.69691e-07
-3.76339e-06
-1.22906e-06
-2.43299e-07
1.32314e-06
-7.93185e-07
3.10879e-06
-1.50627e-06
4.16341e-06
-2.28801e-06
4.66962e-06
-3.08704e-06
4.80133e-06
-3.88181e-06
4.68847e-06
-4.6671e-06
4.40912e-06
-5.44262e-06
3.99347e-06
-6.20298e-06
3.43197e-06
-6.92787e-06
2.68445e-06
-7.57202e-06
1.69116e-06
-8.05667e-06
3.90518e-07
-8.26699e-06
-1.25017e-06
-8.06309e-06
-3.18671e-06
-7.31358e-06
-5.23732e-06
-5.959e-06
-7.03073e-06
-4.1036e-06
-8.00732e-06
-2.10456e-06
-7.54618e-06
-5.55146e-07
-5.31281e-06
-1.7842e-06
-2.75087e-07
1.59822e-06
-8.87667e-07
3.72137e-06
-1.6673e-06
4.94304e-06
-2.50678e-06
5.5091e-06
-3.35409e-06
5.64863e-06
-4.19375e-06
5.52813e-06
-5.02977e-06
5.24514e-06
-5.87242e-06
4.83612e-06
-6.72713e-06
4.28669e-06
-7.58325e-06
3.54057e-06
-8.40147e-06
2.50938e-06
-9.10117e-06
1.09022e-06
-9.55228e-06
-7.99062e-07
-9.57915e-06
-3.15984e-06
-8.9874e-06
-5.82906e-06
-7.62811e-06
-8.39003e-06
-5.51532e-06
-1.01201e-05
-2.99315e-06
-1.00683e-05
-8.43076e-07
-7.46289e-06
-2.62728e-06
-3.16488e-07
1.91471e-06
-1.00224e-06
4.40712e-06
-1.84754e-06
5.78834e-06
-2.72913e-06
6.39069e-06
-3.59529e-06
6.51479e-06
-4.43807e-06
6.37092e-06
-5.27146e-06
6.07853e-06
-6.11683e-06
5.68148e-06
-6.99205e-06
5.16191e-06
-7.90056e-06
4.44908e-06
-8.81819e-06
3.42701e-06
-9.67819e-06
1.95022e-06
-1.03573e-05
-1.19914e-07
-1.0669e-05
-2.84821e-06
-1.03723e-05
-6.12574e-06
-9.21734e-06
-9.54498e-06
-7.06408e-06
-1.22734e-05
-4.12324e-06
-1.30092e-05
-1.27387e-06
-1.03123e-05
-3.90114e-06
-3.76542e-07
2.29125e-06
-1.15274e-06
5.18332e-06
-2.05963e-06
6.69523e-06
-2.95524e-06
7.2863e-06
-3.79152e-06
7.35107e-06
-4.57059e-06
7.14999e-06
-5.31664e-06
6.82458e-06
-6.06121e-06
6.42605e-06
-6.83443e-06
5.93513e-06
-7.65687e-06
5.27152e-06
-8.52885e-06
4.29899e-06
-9.41625e-06
2.83762e-06
-1.02329e-05
6.96735e-07
-1.08211e-05
-2.26006e-06
-1.09346e-05
-6.01217e-06
-1.02436e-05
-1.0236e-05
-8.41386e-06
-1.41031e-05
-5.37428e-06
-1.60488e-05
-1.8767e-06
-1.38098e-05
-5.77784e-06
-4.73667e-07
2.76492e-06
-1.36845e-06
6.0781e-06
-2.32524e-06
7.65203e-06
-3.18621e-06
8.14727e-06
-3.91721e-06
8.08207e-06
-4.53634e-06
7.76912e-06
-5.0793e-06
7.36753e-06
-5.58655e-06
6.9333e-06
-6.09886e-06
6.44743e-06
-6.65434e-06
5.82701e-06
-7.2836e-06
4.92825e-06
-8.00004e-06
3.55406e-06
-8.78258e-06
1.47928e-06
-9.54677e-06
-1.49587e-06
-1.01014e-05
-5.4575e-06
-1.00996e-05
-1.02379e-05
-9.03496e-06
-1.51677e-05
-6.44225e-06
-1.86415e-05
-2.61978e-06
-1.76323e-05
-8.39763e-06
-6.44457e-07
3.40938e-06
-1.69908e-06
7.13273e-06
-2.67144e-06
8.62439e-06
-3.40957e-06
8.88539e-06
-3.91837e-06
8.59088e-06
-4.24497e-06
8.09572e-06
-4.44139e-06
7.56396e-06
-4.55742e-06
7.04933e-06
-4.64239e-06
6.53241e-06
-4.74911e-06
5.93373e-06
-4.9366e-06
5.11573e-06
-5.26829e-06
3.88575e-06
-5.80046e-06
2.01145e-06
-6.55261e-06
-7.43718e-07
-7.44922e-06
-4.5609e-06
-8.22331e-06
-9.46379e-06
-8.30103e-06
-1.509e-05
-6.82534e-06
-2.01172e-05
-3.33803e-06
-2.11196e-05
-1.17357e-05
-9.58208e-07
4.36759e-06
-2.21496e-06
8.38948e-06
-3.09865e-06
9.50808e-06
-3.53927e-06
9.32601e-06
-3.63372e-06
8.68532e-06
-3.48109e-06
7.94309e-06
-3.15883e-06
7.2417e-06
-2.72829e-06
6.61879e-06
-2.24491e-06
6.04903e-06
-1.76947e-06
5.45828e-06
-1.3787e-06
4.72497e-06
-1.1726e-06
3.67965e-06
-1.27273e-06
2.11158e-06
-1.80267e-06
-2.13777e-07
-2.83555e-06
-3.52802e-06
-4.28046e-06
-8.01888e-06
-5.66832e-06
-1.37021e-05
-5.91358e-06
-1.98719e-05
-3.68568e-06
-2.33475e-05
-1.54213e-05
-1.53094e-06
5.89853e-06
-2.94628e-06
9.80482e-06
-3.42801e-06
9.98981e-06
-3.2033e-06
9.10131e-06
-2.55268e-06
8.0347e-06
-1.65301e-06
7.04342e-06
-6.10555e-07
6.19924e-06
5.06077e-07
5.50215e-06
1.64376e-06
4.91135e-06
2.74622e-06
4.35582e-06
3.73656e-06
3.73463e-06
4.50227e-06
2.91393e-06
4.88668e-06
1.72717e-06
4.6932e-06
-2.02996e-08
3.71466e-06
-2.54947e-06
1.82051e-06
-6.12473e-06
-8.02346e-07
-1.10793e-05
-3.14454e-06
-1.75297e-05
-3.1635e-06
-2.33286e-05
-1.85848e-05
-2.48036e-06
8.37889e-06
-3.46471e-06
1.07892e-05
-2.65862e-06
9.18372e-06
-1.04944e-06
7.49213e-06
8.32708e-07
6.15255e-06
2.77605e-06
5.10009e-06
4.69148e-06
4.2838e-06
6.53744e-06
3.6562e-06
8.28942e-06
3.15937e-06
9.91753e-06
2.72771e-06
1.13662e-05
2.28598e-06
1.25358e-05
1.74432e-06
1.32676e-05
9.95352e-07
1.33348e-05
-8.74892e-08
1.24452e-05
-1.65988e-06
1.02743e-05
-3.95387e-06
6.62199e-06
-7.42693e-06
2.02408e-06
-1.29318e-05
-1.2039e-06
-2.01006e-05
-1.97887e-05
-2.92203e-06
1.13009e-05
-6.07956e-07
8.47509e-06
3.2779e-06
5.29786e-06
6.96592e-06
3.8041e-06
1.02273e-05
2.89121e-06
1.30978e-05
2.22952e-06
1.56265e-05
1.75511e-06
1.78633e-05
1.41943e-06
1.98498e-05
1.17285e-06
2.16047e-05
9.72777e-07
2.31102e-05
7.80508e-07
2.42985e-05
5.56057e-07
2.50379e-05
2.55891e-07
2.51184e-05
-1.67992e-07
2.42327e-05
-7.74174e-07
2.19482e-05
-1.66937e-06
1.76903e-05
-3.169e-06
1.10334e-05
-6.27484e-06
3.25931e-06
-1.23265e-05
-1.65294e-05
1.13009e-05
1.9776e-05
2.50739e-05
2.8878e-05
3.17692e-05
3.39987e-05
3.57538e-05
3.71733e-05
3.83461e-05
3.93189e-05
4.00994e-05
4.06554e-05
4.09113e-05
4.07433e-05
3.99692e-05
3.82998e-05
3.51308e-05
2.8856e-05
1.65294e-05
)
;

boundaryField
{
    movingWall
    {
        type            calculated;
        value           uniform 0;
    }
    fixedWalls
    {
        type            calculated;
        value           uniform 0;
    }
    frontAndBack
    {
        type            empty;
        value           nonuniform 0();
    }
}


// ************************************************************************* //
