/*--------------------------------*- C++ -*----------------------------------*\
  =========                 |
  \\      /  F ield         | OpenFOAM: The Open Source CFD Toolbox
   \\    /   O peration     | Website:  https://openfoam.org
    \\  /    A nd           | Version:  6
     \\/     M anipulation  |
\*---------------------------------------------------------------------------*/
FoamFile
{
    version     2.0;
    format      ascii;
    class       volVectorField;
    location    "0.225";
    object      U;
}
// * * * * * * * * * * * * * * * * * * * * * * * * * * * * * * * * * * * * * //

dimensions      [0 1 -1 0 0 0 0];

internalField   nonuniform List<vector> 
400
(
(7.92997e-05 -8.11249e-05 0)
(-0.000215791 0.00020979 0)
(-0.00130053 0.000469343 0)
(-0.00289012 0.000611945 0)
(-0.00470411 0.000663697 0)
(-0.0065509 0.000654483 0)
(-0.00829457 0.000602799 0)
(-0.00982899 0.000516324 0)
(-0.0110587 0.000395267 0)
(-0.0118878 0.00023721 0)
(-0.0122209 4.2193e-05 0)
(-0.0119751 -0.000182582 0)
(-0.0111021 -0.000419034 0)
(-0.00961719 -0.000636636 0)
(-0.00762641 -0.000794582 0)
(-0.0053421 -0.000849079 0)
(-0.00307345 -0.000765353 0)
(-0.00118758 -0.000530727 0)
(-4.77296e-05 -0.000174885 0)
(0.000146331 0.000136616 0)
(-0.000215762 0.000209548 0)
(-0.00157798 0.00154106 0)
(-0.00451286 0.0026433 0)
(-0.00841656 0.00327636 0)
(-0.0127546 0.00350775 0)
(-0.0171349 0.00343641 0)
(-0.0212439 0.00313421 0)
(-0.0248216 0.00263833 0)
(-0.027638 0.00196004 0)
(-0.0294764 0.00110238 0)
(-0.0301373 8.04591e-05 0)
(-0.0294622 -0.00105947 0)
(-0.0273755 -0.0022256 0)
(-0.0239373 -0.00327603 0)
(-0.0193915 -0.00403036 0)
(-0.0141903 -0.00430284 0)
(-0.00896615 -0.00395547 0)
(-0.00444201 -0.00295821 0)
(-0.00132682 -0.00146189 0)
(-0.000103333 -1.32267e-05 0)
(-0.000520477 0.00134691 0)
(-0.00290898 0.00454253 0)
(-0.00747189 0.00698781 0)
(-0.0132473 0.00839581 0)
(-0.0195169 0.00888931 0)
(-0.0257776 0.00865608 0)
(-0.031613 0.00784525 0)
(-0.0366687 0.00654374 0)
(-0.0406296 0.00478986 0)
(-0.0432027 0.00260799 0)
(-0.0441206 5.07581e-05 0)
(-0.0431722 -0.0027602 0)
(-0.0402546 -0.00560368 0)
(-0.0354409 -0.00815003 0)
(-0.0290458 -0.00998811 0)
(-0.0216636 -0.0107003 0)
(-0.0141361 -0.00998326 0)
(-0.00743561 -0.00778758 0)
(-0.00256375 -0.00445443 0)
(-0.000355627 -0.00093881 0)
(-0.000756597 0.00317369 0)
(-0.00401104 0.00890252 0)
(-0.00998875 0.0129942 0)
(-0.0173601 0.0152891 0)
(-0.0252323 0.0160325 0)
(-0.0330271 0.0155307 0)
(-0.0402706 0.0140255 0)
(-0.0465574 0.0116616 0)
(-0.051523 0.00850869 0)
(-0.0548204 0.00461524 0)
(-0.0561213 7.59735e-05 0)
(-0.0551478 -0.00490117 0)
(-0.0517327 -0.00994229 0)
(-0.0459049 -0.014488 0)
(-0.037985 -0.0178332 0)
(-0.0286565 -0.0192491 0)
(-0.0189541 -0.0181921 0)
(-0.0101362 -0.0145499 0)
(-0.00357615 -0.00885402 0)
(-0.00052 -0.00246071 0)
(-0.00094246 0.00553625 0)
(-0.00493193 0.0143836 0)
(-0.0121555 0.020377 0)
(-0.0209433 0.0236285 0)
(-0.0302391 0.0245928 0)
(-0.0394086 0.0237394 0)
(-0.04795 0.0214211 0)
(-0.0554378 0.0178435 0)
(-0.0614823 0.0131011 0)
(-0.0656932 0.00725252 0)
(-0.0676723 0.000417643 0)
(-0.0670406 -0.00712352 0)
(-0.0635055 -0.0148448 0)
(-0.0569711 -0.021929 0)
(-0.0476813 -0.027306 0)
(-0.0363585 -0.0298215 0)
(-0.0242506 -0.0285574 0)
(-0.013012 -0.0232388 0)
(-0.00455373 -0.014578 0)
(-0.000637468 -0.00443838 0)
(-0.00110199 0.0083514 0)
(-0.005751 0.0208633 0)
(-0.0141209 0.0290192 0)
(-0.0242315 0.0333118 0)
(-0.0348776 0.0344936 0)
(-0.0453868 0.0332504 0)
(-0.0552548 0.0300696 0)
(-0.0640633 0.0252195 0)
(-0.0714189 0.0188021 0)
(-0.0768973 0.010856 0)
(-0.0800168 0.00148479 0)
(-0.0802536 -0.00900216 0)
(-0.0771096 -0.0199536 0)
(-0.0702509 -0.0302788 0)
(-0.0597214 -0.038454 0)
(-0.0461937 -0.0427216 0)
(-0.0311372 -0.0415538 0)
(-0.0167587 -0.0343183 0)
(-0.00579127 -0.0218893 0)
(-0.000767363 -0.00688965 0)
(-0.0012539 0.0115835 0)
(-0.00653918 0.0282848 0)
(-0.0160247 0.0388689 0)
(-0.0274337 0.0443054 0)
(-0.0394256 0.0457347 0)
(-0.0513105 0.0441185 0)
(-0.0626099 0.0401074 0)
(-0.072944 0.0340318 0)
(-0.0819442 0.0259772 0)
(-0.0891688 0.0159135 0)
(-0.0940479 0.00385948 0)
(-0.0958711 -0.00992691 0)
(-0.0938431 -0.0247389 0)
(-0.0872453 -0.0392293 0)
(-0.0757365 -0.0513279 0)
(-0.0597701 -0.0584263 0)
(-0.0409767 -0.0580034 0)
(-0.0222782 -0.0486949 0)
(-0.00767116 -0.0314371 0)
(-0.000980332 -0.0100074 0)
(-0.00141204 0.0152324 0)
(-0.00735215 0.0366478 0)
(-0.0179762 0.0499274 0)
(-0.0307015 0.0566195 0)
(-0.0440607 0.058352 0)
(-0.0573703 0.0564324 0)
(-0.0702115 0.0517083 0)
(-0.0822826 0.0445738 0)
(-0.0932802 0.0350678 0)
(-0.10278 0.0230288 0)
(-0.110139 0.00829184 0)
(-0.114438 -0.0090642 0)
(-0.1145 -0.0284094 0)
(-0.109055 -0.0482211 0)
(-0.0971337 -0.0658235 0)
(-0.0786893 -0.0774594 0)
(-0.0553075 -0.0790436 0)
(-0.0306966 -0.0677963 0)
(-0.0107029 -0.0443734 0)
(-0.00137312 -0.0142045 0)
(-0.00158746 0.0193245 0)
(-0.00823353 0.0459977 0)
(-0.0200538 0.0622321 0)
(-0.0341233 0.0702787 0)
(-0.0488472 0.0723736 0)
(-0.0635746 0.0702543 0)
(-0.0779853 0.0650086 0)
(-0.0919023 0.0571013 0)
(-0.105141 0.0464951 0)
(-0.11735 0.0328245 0)
(-0.12786 0.0156176 0)
(-0.13556 -0.00540292 0)
(-0.138851 -0.029893 0)
(-0.135778 -0.0563341 0)
(-0.124482 -0.0814781 0)
(-0.104034 -0.100143 0)
(-0.075545 -0.105945 0)
(-0.0433037 -0.09356 0)
(-0.0155738 -0.0624719 0)
(-0.00209479 -0.0201918 0)
(-0.00179325 0.0239096 0)
(-0.00922837 0.0564131 0)
(-0.0223237 0.0758304 0)
(-0.0377401 0.0852781 0)
(-0.0537443 0.0877555 0)
(-0.0697444 0.0855334 0)
(-0.0855574 0.0799947 0)
(-0.101178 0.0716901 0)
(-0.116598 0.060484 0)
(-0.131609 0.0457378 0)
(-0.145601 0.0265391 0)
(-0.157356 0.00204466 0)
(-0.164907 -0.027965 0)
(-0.165593 -0.0622703 0)
(-0.156498 -0.0972479 0)
(-0.135412 -0.126177 0)
(-0.102295 -0.139639 0)
(-0.0612877 -0.128172 0)
(-0.0231912 -0.0881855 0)
(-0.00339315 -0.0290965 0)
(-0.00205347 0.0290676 0)
(-0.0104085 0.068006 0)
(-0.0248753 0.0907571 0)
(-0.0415817 0.101534 0)
(-0.0586343 0.104305 0)
(-0.0755272 0.101999 0)
(-0.0922478 0.0963563 0)
(-0.108996 0.0880385 0)
(-0.125985 0.0768045 0)
(-0.143224 0.0616942 0)
(-0.160278 0.0412429 0)
(-0.175987 0.0138426 0)
(-0.188228 -0.0215891 0)
(-0.193831 -0.0645204 0)
(-0.188901 -0.111364 0)
(-0.169695 -0.154104 0)
(-0.134221 -0.179892 0)
(-0.0850899 -0.173356 0)
(-0.0346436 -0.124509 0)
(-0.00568673 -0.0426385 0)
(-0.00241936 0.0349382 0)
(-0.0119152 0.0809422 0)
(-0.0278771 0.107018 0)
(-0.0457176 0.118832 0)
(-0.0633625 0.121596 0)
(-0.0804304 0.119041 0)
(-0.0971036 0.113326 0)
(-0.113796 0.105248 0)
(-0.130959 0.0944752 0)
(-0.148872 0.0797223 0)
(-0.167404 0.058929 0)
(-0.185703 0.0296066 0)
(-0.201869 -0.0104235 0)
(-0.212713 -0.0617243 0)
(-0.213806 -0.121372 0)
(-0.2 -0.180818 0)
(-0.166711 -0.224206 0)
(-0.113238 -0.229041 0)
(-0.0508567 -0.174369 0)
(-0.00962137 -0.0633352 0)
(-0.0030006 0.0417863 0)
(-0.0140304 0.0954891 0)
(-0.0316539 0.124573 0)
(-0.0503128 0.136757 0)
(-0.0677697 0.138874 0)
(-0.08385 0.1356 0)
(-0.0989613 0.129545 0)
(-0.113718 0.121659 0)
(-0.128789 0.111553 0)
(-0.14474 0.0976802 0)
(-0.161857 0.0774589 0)
(-0.179867 0.0475696 0)
(-0.197586 0.00468011 0)
(-0.212524 -0.0531743 0)
(-0.220567 -0.124482 0)
(-0.215832 -0.201475 0)
(-0.191105 -0.266881 0)
(-0.140888 -0.291505 0)
(-0.07156 -0.239023 0)
(-0.015956 -0.0944974 0)
(-0.00402697 0.0501389 0)
(-0.0172968 0.112093 0)
(-0.0367785 0.143294 0)
(-0.0556395 0.154589 0)
(-0.0716343 0.154943 0)
(-0.0849928 0.150075 0)
(-0.0964217 0.143016 0)
(-0.106728 0.134851 0)
(-0.116754 0.12518 0)
(-0.127333 0.112323 0)
(-0.139208 0.0933908 0)
(-0.15288 0.0644937 0)
(-0.1683 0.0213518 0)
(-0.184411 -0.0394589 0)
(-0.198479 -0.118484 0)
(-0.205148 -0.210361 0)
(-0.195538 -0.299168 0)
(-0.159049 -0.351929 0)
(-0.0934932 -0.315309 0)
(-0.0250041 -0.139502 0)
(-0.00596837 0.0610539 0)
(-0.0227095 0.131465 0)
(-0.044122 0.16281 0)
(-0.0618913 0.171074 0)
(-0.074289 0.167977 0)
(-0.0823859 0.160237 0)
(-0.0873586 0.151155 0)
(-0.0902435 0.141867 0)
(-0.0920365 0.131989 0)
(-0.0937722 0.119858 0)
(-0.0965944 0.102578 0)
(-0.101758 0.0761192 0)
(-0.110476 0.0357308 0)
(-0.123526 -0.0231432 0)
(-0.14046 -0.103304 0)
(-0.158042 -0.203157 0)
(-0.16784 -0.311512 0)
(-0.155702 -0.397153 0)
(-0.108919 -0.393349 0)
(-0.0354031 -0.200151 0)
(-0.00973828 0.0766988 0)
(-0.0319396 0.154586 0)
(-0.0545696 0.182086 0)
(-0.0682418 0.183946 0)
(-0.0731911 0.175156 0)
(-0.0721527 0.163056 0)
(-0.0670525 0.150865 0)
(-0.0592437 0.139574 0)
(-0.0498646 0.128764 0)
(-0.0400573 0.116889 0)
(-0.0311826 0.101314 0)
(-0.0249928 0.0783219 0)
(-0.0236747 0.0433238 0)
(-0.0296611 -0.00864325 0)
(-0.0450346 -0.0820727 0)
(-0.0699453 -0.179461 0)
(-0.0992412 -0.297184 0)
(-0.118854 -0.413097 0)
(-0.106312 -0.457194 0)
(-0.0424164 -0.274706 0)
(-0.0168912 0.101762 0)
(-0.0470684 0.182131 0)
(-0.066908 0.197899 0)
(-0.0690456 0.188443 0)
(-0.0592428 0.171548 0)
(-0.0430076 0.154018 0)
(-0.0231459 0.13828 0)
(-0.00126835 0.124802 0)
(0.021482 0.112954 0)
(0.0440651 0.1013 0)
(0.0652006 0.0876079 0)
(0.0830541 0.0688159 0)
(0.0950179 0.0410735 0)
(0.0976631 -8.5085e-05 0)
(0.0869707 -0.0595663 0)
(0.0592909 -0.142678 0)
(0.0142378 -0.254029 0)
(-0.039396 -0.387585 0)
(-0.0733734 -0.486251 0)
(-0.0367853 -0.353981 0)
(-0.0287853 0.145882 0)
(-0.0664328 0.210107 0)
(-0.0665896 0.198017 0)
(-0.0397211 0.172169 0)
(-0.00307584 0.147177 0)
(0.0359518 0.125727 0)
(0.074882 0.108276 0)
(0.112649 0.0943616 0)
(0.148691 0.0829761 0)
(0.182535 0.0727569 0)
(0.213398 0.061964 0)
(0.23981 0.0483915 0)
(0.259306 0.029325 0)
(0.2682 0.00154369 0)
(0.261499 -0.0388368 0)
(0.233118 -0.0973183 0)
(0.176876 -0.183687 0)
(0.0912404 -0.310754 0)
(0.00261182 -0.452511 0)
(-0.00354107 -0.408301 0)
(-0.0314488 0.214916 0)
(-0.0468419 0.214578 0)
(0.0227452 0.15754 0)
(0.102704 0.120168 0)
(0.173434 0.0946922 0)
(0.234807 0.0756712 0)
(0.288622 0.0614484 0)
(0.336085 0.0509119 0)
(0.378124 0.0429074 0)
(0.41537 0.0363069 0)
(0.447888 0.029967 0)
(0.474894 0.0226242 0)
(0.494491 0.0128311 0)
(0.503415 -0.00107696 0)
(0.496706 -0.0211276 0)
(0.467373 -0.0504988 0)
(0.405421 -0.0970712 0)
(0.29693 -0.183626 0)
(0.151571 -0.323928 0)
(0.0903772 -0.368307 0)
(0.260647 0.132019 0)
(0.320856 0.116827 0)
(0.440944 0.0784158 0)
(0.540803 0.0535892 0)
(0.610052 0.0380847 0)
(0.660286 0.027614 0)
(0.699238 0.0203847 0)
(0.730506 0.0154137 0)
(0.756108 0.0119503 0)
(0.777313 0.00939676 0)
(0.794677 0.00725845 0)
(0.807984 0.00508244 0)
(0.81618 0.00241873 0)
(0.817302 -0.00119839 0)
(0.808233 -0.00628609 0)
(0.784325 -0.0136378 0)
(0.737115 -0.0252875 0)
(0.651361 -0.0480072 0)
(0.489696 -0.103253 0)
(0.357817 -0.149603 0)
)
;

boundaryField
{
    movingWall
    {
        type            fixedValue;
        value           uniform (1 0 0);
    }
    fixedWalls
    {
        type            noSlip;
    }
    frontAndBack
    {
        type            empty;
    }
}


// ************************************************************************* //
