/*--------------------------------*- C++ -*----------------------------------*\
  =========                 |
  \\      /  F ield         | OpenFOAM: The Open Source CFD Toolbox
   \\    /   O peration     | Website:  https://openfoam.org
    \\  /    A nd           | Version:  6
     \\/     M anipulation  |
\*---------------------------------------------------------------------------*/
FoamFile
{
    version     2.0;
    format      ascii;
    class       volScalarField;
    location    "0.015";
    object      p;
}
// * * * * * * * * * * * * * * * * * * * * * * * * * * * * * * * * * * * * * //

dimensions      [0 2 -2 0 0 0 0];

internalField   nonuniform List<scalar> 
400
(
-2.8157e-07
-0.0214453
-0.0477259
-0.0674098
-0.0738076
-0.0639732
-0.0377686
0.00293495
0.0549045
0.114029
0.175688
0.235064
0.287445
0.328569
0.355051
0.364919
0.358312
0.33829
0.311744
0.290251
0.0212854
-0.000774916
-0.0213803
-0.0347912
-0.0377127
-0.0280603
-0.00561797
0.0282535
0.0710797
0.11963
0.170218
0.218977
0.262144
0.296364
0.319037
0.328717
0.325616
0.311913
0.291076
0.268988
0.0492742
0.0186237
-0.00381
-0.0162191
-0.0184389
-0.00933258
0.0110319
0.0413348
0.0793917
0.12241
0.16721
0.210456
0.248888
0.279583
0.300216
0.30937
0.306964
0.294226
0.271512
0.240817
0.0747629
0.0322003
0.00407194
-0.0102837
-0.0132741
-0.00461264
0.0151903
0.0445792
0.0813445
0.122812
0.165995
0.207764
0.245036
0.274974
0.295184
0.303976
0.3008
0.286037
0.257508
0.214812
0.0918592
0.0365043
0.0014681
-0.015668
-0.0195424
-0.0106352
0.0100466
0.0405827
0.0785778
0.121306
0.165798
0.208959
0.247695
0.279064
0.300422
0.309645
0.305642
0.288016
0.252394
0.19671
0.0962835
0.0275643
-0.0148294
-0.0347235
-0.0388502
-0.0284363
-0.00504489
0.0289351
0.0708031
0.117658
0.166426
0.213915
0.25689
0.292162
0.316683
0.327762
0.323671
0.303236
0.260007
0.190617
0.0841871
0.0013292
-0.0484958
-0.0704702
-0.0735318
-0.0597388
-0.0313128
0.00877978
0.0574352
0.111493
0.167698
0.222688
0.272995
0.315078
0.345356
0.360412
0.357738
0.335257
0.284295
0.200231
0.0512866
-0.0467605
-0.103724
-0.126377
-0.126266
-0.106505
-0.0701405
-0.0208398
0.037816
0.102372
0.169376
0.235284
0.296374
0.348691
0.388005
0.41
0.411155
0.388207
0.329783
0.229757
-0.00784793
-0.122372
-0.185671
-0.206665
-0.200269
-0.17105
-0.123127
-0.0610071
0.0112108
0.0898027
0.171185
0.251706
0.327442
0.39403
0.446511
0.479463
0.488028
0.467267
0.402234
0.284691
-0.100488
-0.232888
-0.300833
-0.316438
-0.299238
-0.25588
-0.191884
-0.112735
-0.0230344
0.0733412
0.172846
0.271904
0.366561
0.452146
0.522955
0.572257
0.593424
0.579091
0.509316
0.372602
-0.236676
-0.38819
-0.457456
-0.461723
-0.427145
-0.363351
-0.277662
-0.176628
-0.0652307
0.0527504
0.174121
0.295717
0.413876
0.52388
0.619388
0.69222
0.733474
0.73229
0.661491
0.504197
-0.430802
-0.601852
-0.666036
-0.649393
-0.587814
-0.495114
-0.380786
-0.252391
-0.114972
0.0282409
0.174908
0.322812
0.469109
0.609531
0.737452
0.843285
0.915385
0.938011
0.873311
0.695069
-0.704638
-0.893029
-0.939854
-0.886795
-0.784119
-0.651195
-0.499818
-0.338154
-0.170639
0.000776205
0.175358
0.352594
0.531259
0.708352
0.877729
1.02886
1.1472
1.21057
1.16545
0.968966
-1.09368
-1.28956
-1.29523
-1.1806
-1.0164
-0.828487
-0.630334
-0.429573
-0.228817
-0.0276104
0.175936
0.384011
0.598089
0.817688
1.03854
1.25049
1.4368
1.5678
1.56792
1.3645
-1.66032
-1.8325
-1.7504
-1.53374
-1.27932
-1.01823
-0.763174
-0.518763
-0.283723
-0.0536157
0.177314
0.415107
0.665241
0.931461
1.21368
1.50492
1.78898
2.03
2.12472
1.94869
-2.51652
-2.58014
-2.3214
-1.9402
-1.55758
-1.20319
-0.882921
-0.593673
-0.327119
-0.0728716
0.179984
0.442424
0.725248
1.03848
1.38958
1.77989
2.20031
2.61573
2.89747
2.83964
-3.8639
-3.60802
-3.0144
-2.38069
-1.82415
-1.35748
-0.968837
-0.639491
-0.349687
-0.0810009
0.18363
0.460768
0.767504
1.12222
1.5444
2.05198
2.65459
3.3339
3.96487
4.2455
-6.15388
-5.01151
-3.78697
-2.79279
-2.02287
-1.43781
-0.991146
-0.637665
-0.341399
-0.0746328
0.185662
0.461074
0.774754
1.15461
1.63688
2.26711
3.09131
4.14448
5.42724
6.62633
-10.5677
-6.84979
-4.36123
-2.92083
-1.97524
-1.3302
-0.881036
-0.549225
-0.283116
-0.0490035
0.178267
0.421419
0.705744
1.06521
1.55191
2.24585
3.25445
4.77169
7.34981
11.1696
-17.9833
-8.61461
-4.16142
-2.38825
-1.47369
-0.930548
-0.588926
-0.35194
-0.166655
-0.00398323
0.155324
0.327943
0.533175
0.800101
1.18157
1.77618
2.76144
4.63179
9.19916
18.6826
)
;

boundaryField
{
    movingWall
    {
        type            zeroGradient;
    }
    fixedWalls
    {
        type            zeroGradient;
    }
    frontAndBack
    {
        type            empty;
    }
}


// ************************************************************************* //
