/*--------------------------------*- C++ -*----------------------------------*\
  =========                 |
  \\      /  F ield         | OpenFOAM: The Open Source CFD Toolbox
   \\    /   O peration     | Website:  https://openfoam.org
    \\  /    A nd           | Version:  6
     \\/     M anipulation  |
\*---------------------------------------------------------------------------*/
FoamFile
{
    version     2.0;
    format      ascii;
    class       volVectorField;
    location    "0.04";
    object      U;
}
// * * * * * * * * * * * * * * * * * * * * * * * * * * * * * * * * * * * * * //

dimensions      [0 1 -1 0 0 0 0];

internalField   nonuniform List<vector> 
400
(
(0.000168548 -0.000166247 0)
(-5.82795e-06 0.000147746 0)
(-0.00115267 0.000502733 0)
(-0.0030481 0.000736948 0)
(-0.00535452 0.000841442 0)
(-0.00776178 0.000835214 0)
(-0.0100086 0.000741693 0)
(-0.0118884 0.000583128 0)
(-0.0132483 0.000378595 0)
(-0.0139833 0.000144558 0)
(-0.0140334 -0.000103433 0)
(-0.0133843 -0.000348829 0)
(-0.0120717 -0.000572464 0)
(-0.0101887 -0.000751594 0)
(-0.0078936 -0.000860036 0)
(-0.00541368 -0.000870058 0)
(-0.00304034 -0.000756864 0)
(-0.00111051 -0.000505939 0)
(3.04943e-05 -0.000136794 0)
(0.000180828 0.000176345 0)
(-0.000120125 -1.73239e-05 0)
(-0.00146918 0.00149695 0)
(-0.00482947 0.00302371 0)
(-0.0096491 0.00405375 0)
(-0.015259 0.00451169 0)
(-0.0210285 0.00444399 0)
(-0.0263873 0.00393801 0)
(-0.0308622 0.00309159 0)
(-0.0340927 0.00199904 0)
(-0.0358296 0.000748988 0)
(-0.0359327 -0.000571382 0)
(-0.034374 -0.00186999 0)
(-0.0312462 -0.00304429 0)
(-0.0267747 -0.00397912 0)
(-0.0213281 -0.0045503 0)
(-0.0154179 -0.00463701 0)
(-0.00967132 -0.00414603 0)
(-0.00477125 -0.00304865 0)
(-0.00140656 -0.00146116 0)
(-9.68793e-05 5.75442e-05 0)
(-0.000472214 0.00107988 0)
(-0.00309842 0.00486526 0)
(-0.00861027 0.00831172 0)
(-0.016009 0.0106156 0)
(-0.0243443 0.0116019 0)
(-0.0327785 0.0113421 0)
(-0.0405445 0.0100168 0)
(-0.0469984 0.00784784 0)
(-0.0516453 0.00506221 0)
(-0.0541415 0.00188205 0)
(-0.0542938 -0.00147025 0)
(-0.0520635 -0.0047604 0)
(-0.047578 -0.00773197 0)
(-0.0411453 -0.0101039 0)
(-0.0332674 -0.0115826 0)
(-0.024637 -0.011894 0)
(-0.0160973 -0.0108424 0)
(-0.00856263 -0.00839212 0)
(-0.00302155 -0.00480426 0)
(-0.000440342 -0.00099333 0)
(-0.00077194 0.00304028 0)
(-0.00459828 0.0100648 0)
(-0.0121979 0.0159568 0)
(-0.022052 0.0197712 0)
(-0.0328991 0.0212937 0)
(-0.043714 0.0206563 0)
(-0.0535795 0.0181648 0)
(-0.0617327 0.0141974 0)
(-0.0675912 0.0091468 0)
(-0.0707503 0.00340215 0)
(-0.0709793 -0.00264519 0)
(-0.0682257 -0.0085834 0)
(-0.0626283 -0.0139636 0)
(-0.0545384 -0.0182966 0)
(-0.0445396 -0.0210741 0)
(-0.0334531 -0.0218247 0)
(-0.0222971 -0.0202086 0)
(-0.0122083 -0.0161466 0)
(-0.00452011 -0.00999445 0)
(-0.000731368 -0.0028956 0)
(-0.00103743 0.00575998 0)
(-0.00602255 0.0169848 0)
(-0.015712 0.0258278 0)
(-0.0280303 0.0313287 0)
(-0.0413658 0.0333299 0)
(-0.054496 0.0320921 0)
(-0.0663683 0.0280946 0)
(-0.0761294 0.0219069 0)
(-0.0831387 0.0141128 0)
(-0.0869528 0.00528646 0)
(-0.0873122 -0.00399706 0)
(-0.084143 -0.0131329 0)
(-0.0775733 -0.0214596 0)
(-0.0679635 -0.0282503 0)
(-0.0559419 -0.0327414 0)
(-0.0424297 -0.0342098 0)
(-0.0286143 -0.0321072 0)
(-0.0158833 -0.0262348 0)
(-0.00597842 -0.0169573 0)
(-0.000992164 -0.00555527 0)
(-0.00130236 0.00921513 0)
(-0.0074879 0.0256567 0)
(-0.0193745 0.0380071 0)
(-0.0342818 0.045378 0)
(-0.0502054 0.0477757 0)
(-0.0657078 0.045681 0)
(-0.0796076 0.0398148 0)
(-0.0909817 0.0309824 0)
(-0.0991561 0.0199831 0)
(-0.103667 0.00758603 0)
(-0.104234 -0.00544815 0)
(-0.100751 -0.0183204 0)
(-0.093312 -0.0301474 0)
(-0.0822506 -0.0399402 0)
(-0.0682037 -0.0466323 0)
(-0.0521679 -0.0491759 0)
(-0.0355022 -0.0467181 0)
(-0.019885 -0.0388327 0)
(-0.00754657 -0.0257933 0)
(-0.00126328 -0.00897214 0)
(-0.00159848 0.0134556 0)
(-0.00911492 0.0362178 0)
(-0.0234169 0.0526748 0)
(-0.0411329 0.062092 0)
(-0.0598119 0.0647647 0)
(-0.0777877 0.06151 0)
(-0.0937624 0.0533784 0)
(-0.106771 0.0414652 0)
(-0.116137 0.0268093 0)
(-0.121401 0.0103753 0)
(-0.122269 -0.00690278 0)
(-0.118597 -0.0240466 0)
(-0.110414 -0.0399559 0)
(-0.097985 -0.0533617 0)
(-0.0819057 -0.0628414 0)
(-0.0632096 -0.0669291 0)
(-0.0434175 -0.0643356 0)
(-0.0245363 -0.0542577 0)
(-0.00938766 -0.0367497 0)
(-0.00158567 -0.0132401 0)
(-0.00195497 0.0185976 0)
(-0.0110156 0.0489083 0)
(-0.0280456 0.0700963 0)
(-0.0488428 0.0816905 0)
(-0.0704434 0.0844392 0)
(-0.0909504 0.0796478 0)
(-0.108981 0.0688071 0)
(-0.123576 0.0533662 0)
(-0.134104 0.0346242 0)
(-0.140146 0.0137303 0)
(-0.141416 -0.00823973 0)
(-0.137724 -0.0301643 0)
(-0.129002 -0.0507518 0)
(-0.11539 -0.0684489 0)
(-0.0973716 -0.0814256 0)
(-0.0759452 -0.0876843 0)
(-0.0527517 -0.0853254 0)
(-0.0301452 -0.0729576 0)
(-0.0116651 -0.0502256 0)
(-0.00200055 -0.0185447 0)
(-0.00240075 0.024818 0)
(-0.0132926 0.0640594 0)
(-0.0334245 0.090592 0)
(-0.0575619 0.104386 0)
(-0.0821539 0.106876 0)
(-0.105095 0.100059 0)
(-0.124982 0.0860063 0)
(-0.14094 0.066591 0)
(-0.15246 0.0433867 0)
(-0.159222 0.017698 0)
(-0.160977 -0.0093127 0)
(-0.157492 -0.0364463 0)
(-0.148573 -0.0622755 0)
(-0.134161 -0.0849856 0)
(-0.114522 -0.102301 0)
(-0.0905021 -0.111568 0)
(-0.0637618 -0.110052 0)
(-0.0369767 -0.095472 0)
(-0.014541 -0.0667616 0)
(-0.00255257 -0.0251629 0)
(-0.00297026 0.0323522 0)
(-0.0160494 0.0820689 0)
(-0.0396699 0.114476 0)
(-0.0672938 0.130285 0)
(-0.0947145 0.131965 0)
(-0.119686 0.122477 0)
(-0.140905 0.104643 0)
(-0.157705 0.0808362 0)
(-0.169806 0.0529031 0)
(-0.177071 0.0222504 0)
(-0.179341 -0.00995952 0)
(-0.176357 -0.0425522 0)
(-0.167767 -0.0740637 0)
(-0.153236 -0.102485 0)
(-0.132675 -0.125093 0)
(-0.106595 -0.138458 0)
(-0.0764842 -0.13874 0)
(-0.045226 -0.122347 0)
(-0.0181824 -0.0870118 0)
(-0.00329653 -0.0334657 0)
(-0.00371497 0.0415033 0)
(-0.0194114 0.103376 0)
(-0.0468517 0.14197 0)
(-0.0778481 0.159251 0)
(-0.10751 0.159241 0)
(-0.133608 0.146234 0)
(-0.155132 0.123996 0)
(-0.171806 0.0954648 0)
(-0.183723 0.062733 0)
(-0.191036 0.0272229 0)
(-0.193748 -0.0100255 0)
(-0.191607 -0.048007 0)
(-0.184094 -0.0853726 0)
(-0.170523 -0.120053 0)
(-0.15029 -0.148942 0)
(-0.123317 -0.167761 0)
(-0.090607 -0.171269 0)
(-0.0549775 -0.153992 0)
(-0.0227734 -0.111697 0)
(-0.00430973 -0.0439316 0)
(-0.00472609 0.0526751 0)
(-0.023566 0.12843 0)
(-0.054993 0.173066 0)
(-0.088761 0.190696 0)
(-0.119384 0.187662 0)
(-0.144952 0.170052 0)
(-0.165055 0.142781 0)
(-0.180045 0.109373 0)
(-0.19056 0.0720906 0)
(-0.197154 0.0322455 0)
(-0.200073 -0.00940234 0)
(-0.19913 -0.0522003 0)
(-0.19366 -0.0951218 0)
(-0.182586 -0.136252 0)
(-0.164639 -0.172282 0)
(-0.138851 -0.19812 0)
(-0.105273 -0.206863 0)
(-0.0661323 -0.190456 0)
(-0.028535 -0.141526 0)
(-0.00571468 -0.0571794 0)
(-0.00617768 0.0664513 0)
(-0.0288255 0.157652 0)
(-0.0640404 0.207321 0)
(-0.0991306 0.223283 0)
(-0.12837 0.215308 0)
(-0.150718 0.19181 0)
(-0.166797 0.158986 0)
(-0.177864 0.12088 0)
(-0.185255 0.0797699 0)
(-0.190017 0.0366837 0)
(-0.192705 -0.00807977 0)
(-0.193264 -0.0544225 0)
(-0.190956 -0.101887 0)
(-0.184347 -0.149018 0)
(-0.171435 -0.192629 0)
(-0.150068 -0.227058 0)
(-0.118754 -0.24366 0)
(-0.0782583 -0.231052 0)
(-0.0357442 -0.177059 0)
(-0.00771888 -0.0740376 0)
(-0.0084008 0.0837519 0)
(-0.0356957 0.191329 0)
(-0.0737144 0.243473 0)
(-0.107231 0.254477 0)
(-0.131196 0.239023 0)
(-0.146333 0.208313 0)
(-0.154835 0.16977 0)
(-0.159106 0.127705 0)
(-0.161246 0.0841484 0)
(-0.16279 0.0396269 0)
(-0.164605 -0.00619609 0)
(-0.166834 -0.0539535 0)
(-0.168796 -0.103995 0)
(-0.168865 -0.155683 0)
(-0.164408 -0.206456 0)
(-0.151964 -0.250634 0)
(-0.12789 -0.278146 0)
(-0.0902493 -0.273772 0)
(-0.0447082 -0.218416 0)
(-0.0106724 -0.0956607 0)
(-0.0119697 0.106076 0)
(-0.0448307 0.229301 0)
(-0.0829647 0.278758 0)
(-0.109594 0.279915 0)
(-0.12231 0.254045 0)
(-0.124863 0.215206 0)
(-0.121508 0.171561 0)
(-0.115827 0.127149 0)
(-0.110525 0.0833577 0)
(-0.10744 0.039982 0)
(-0.107642 -0.004063 0)
(-0.111489 -0.0502184 0)
(-0.118534 -0.0997835 0)
(-0.127295 -0.153262 0)
(-0.13491 -0.209337 0)
(-0.13687 -0.263255 0)
(-0.127093 -0.304521 0)
(-0.0995153 -0.314355 0)
(-0.0555036 -0.264643 0)
(-0.0150918 -0.12365 0)
(-0.0176214 0.135897 0)
(-0.0563674 0.270108 0)
(-0.0882905 0.30764 0)
(-0.0989377 0.29259 0)
(-0.0920883 0.253825 0)
(-0.0758111 0.207253 0)
(-0.0564176 0.160561 0)
(-0.0382049 0.116631 0)
(-0.0239355 0.075725 0)
(-0.0153015 0.0367412 0)
(-0.013303 -0.00212245 0)
(-0.0184445 -0.0430014 0)
(-0.0307002 -0.0880694 0)
(-0.0492078 -0.139101 0)
(-0.0716607 -0.196589 0)
(-0.0934306 -0.257946 0)
(-0.106592 -0.314198 0)
(-0.100094 -0.344955 0)
(-0.0668836 -0.312466 0)
(-0.0213863 -0.160228 0)
(-0.0252845 0.177575 0)
(-0.0671878 0.308787 0)
(-0.0792689 0.319247 0)
(-0.0598626 0.281676 0)
(-0.0238574 0.23018 0)
(0.0164501 0.179196 0)
(0.0540244 0.133802 0)
(0.0851696 0.0946466 0)
(0.108086 0.0605066 0)
(0.121918 0.0294389 0)
(0.126147 -0.000802107 0)
(0.120283 -0.0326612 0)
(0.103828 -0.0687788 0)
(0.0765328 -0.111917 0)
(0.0391003 -0.164524 0)
(-0.00545008 -0.227297 0)
(-0.049594 -0.295573 0)
(-0.0787062 -0.352143 0)
(-0.0730514 -0.353794 0)
(-0.0284205 -0.208715 0)
(-0.0292353 0.23539 0)
(-0.0621356 0.330193 0)
(-0.0282069 0.293632 0)
(0.0388439 0.23265 0)
(0.110133 0.175419 0)
(0.173921 0.128308 0)
(0.226216 0.0913382 0)
(0.26612 0.0623866 0)
(0.294025 0.0389649 0)
(0.310567 0.018772 0)
(0.316058 -0.000309225 0)
(0.31023 -0.0203938 0)
(0.292136 -0.043843 0)
(0.260225 -0.0735493 0)
(0.21277 -0.11314 0)
(0.149074 -0.166594 0)
(0.0718493 -0.235997 0)
(-0.00728952 -0.315028 0)
(-0.0554451 -0.368783 0)
(-0.027894 -0.269267 0)
(0.00847655 0.27908 0)
(0.0184478 0.292223 0)
(0.132841 0.208414 0)
(0.254525 0.141049 0)
(0.350737 0.0947769 0)
(0.423022 0.0634267 0)
(0.476056 0.042153 0)
(0.513517 0.0273327 0)
(0.538347 0.0164051 0)
(0.552584 0.00759841 0)
(0.557266 -0.000417074 0)
(0.55242 -0.00883405 0)
(0.537004 -0.0190029 0)
(0.508724 -0.0328148 0)
(0.463861 -0.053279 0)
(0.397243 -0.0852848 0)
(0.301933 -0.136157 0)
(0.17312 -0.214318 0)
(0.0440226 -0.311753 0)
(0.0212962 -0.30084 0)
(0.300047 0.145244 0)
(0.395748 0.126962 0)
(0.554089 0.0760174 0)
(0.669987 0.0437321 0)
(0.738329 0.0254819 0)
(0.780332 0.0150415 0)
(0.807426 0.00896943 0)
(0.824867 0.00530777 0)
(0.835617 0.00293233 0)
(0.841374 0.00119988 0)
(0.842944 -0.000289764 0)
(0.84044 -0.00184921 0)
(0.833302 -0.00382807 0)
(0.820087 -0.00677512 0)
(0.797979 -0.0117321 0)
(0.761666 -0.0207961 0)
(0.699287 -0.0381487 0)
(0.585941 -0.0715135 0)
(0.419555 -0.127019 0)
(0.31152 -0.149221 0)
)
;

boundaryField
{
    movingWall
    {
        type            fixedValue;
        value           uniform (1 0 0);
    }
    fixedWalls
    {
        type            noSlip;
    }
    frontAndBack
    {
        type            empty;
    }
}


// ************************************************************************* //
