/*--------------------------------*- C++ -*----------------------------------*\
  =========                 |
  \\      /  F ield         | OpenFOAM: The Open Source CFD Toolbox
   \\    /   O peration     | Website:  https://openfoam.org
    \\  /    A nd           | Version:  6
     \\/     M anipulation  |
\*---------------------------------------------------------------------------*/
FoamFile
{
    version     2.0;
    format      ascii;
    class       volVectorField;
    location    "0.075";
    object      U;
}
// * * * * * * * * * * * * * * * * * * * * * * * * * * * * * * * * * * * * * //

dimensions      [0 1 -1 0 0 0 0];

internalField   nonuniform List<vector> 
400
(
(0.000257248 -0.000253621 0)
(0.000160037 0.000105899 0)
(-0.0011441 0.000565434 0)
(-0.00345409 0.000894699 0)
(-0.00637536 0.00106137 0)
(-0.00949965 0.00107738 0)
(-0.0124586 0.000967455 0)
(-0.0149483 0.000760427 0)
(-0.016739 0.000485002 0)
(-0.017677 0.000168647 0)
(-0.0176844 -0.000162063 0)
(-0.0167583 -0.000480592 0)
(-0.0149726 -0.000759567 0)
(-0.0124791 -0.00097018 0)
(-0.00950927 -0.00108229 0)
(-0.00637171 -0.0010661 0)
(-0.00344074 -0.000896915 0)
(-0.00112902 -0.000564099 0)
(0.000169356 -0.000102418 0)
(0.000259765 0.000255545 0)
(-6.70027e-05 -0.000189811 0)
(-0.00156992 0.00161565 0)
(-0.00562705 0.00361328 0)
(-0.0116673 0.00506593 0)
(-0.0188893 0.00579775 0)
(-0.0264589 0.00581467 0)
(-0.0335746 0.00520273 0)
(-0.0395458 0.00408656 0)
(-0.0438363 0.00260545 0)
(-0.0460816 0.000902796 0)
(-0.0460953 -0.000877071 0)
(-0.0438727 -0.0025886 0)
(-0.0395917 -0.00408418 0)
(-0.0336138 -0.00521495 0)
(-0.026478 -0.00583575 0)
(-0.0188833 -0.00581808 0)
(-0.0116421 -0.00507602 0)
(-0.00559717 -0.00360875 0)
(-0.00155011 -0.00160147 0)
(-6.11231e-05 0.000199358 0)
(-0.00051265 0.00103765 0)
(-0.00365363 0.00566792 0)
(-0.0105054 0.0102137 0)
(-0.0199363 0.0134734 0)
(-0.0307801 0.0150613 0)
(-0.0419195 0.0149519 0)
(-0.0522762 0.0133172 0)
(-0.060912 0.0104379 0)
(-0.0670945 0.00664688 0)
(-0.0703236 0.00229873 0)
(-0.0703434 -0.00224313 0)
(-0.0671472 -0.00661062 0)
(-0.0609803 -0.0104333 0)
(-0.052338 -0.0133447 0)
(-0.0419557 -0.0149994 0)
(-0.0307819 -0.015108 0)
(-0.0199094 -0.0134983 0)
(-0.010468 -0.0102064 0)
(-0.00362651 -0.00563723 0)
(-0.000504013 -0.00101397 0)
(-0.000907259 0.00338269 0)
(-0.00562468 0.0121119 0)
(-0.0152234 0.0199199 0)
(-0.0278989 0.0253259 0)
(-0.0420755 0.027802 0)
(-0.0563793 0.0273305 0)
(-0.0695204 0.0242069 0)
(-0.0803916 0.0189119 0)
(-0.0881361 0.0120212 0)
(-0.0921724 0.00415354 0)
(-0.0922033 -0.00405366 0)
(-0.08822 -0.0119544 0)
(-0.0805052 -0.0188998 0)
(-0.0696327 -0.0242514 0)
(-0.0564614 -0.0274123 0)
(-0.0421108 -0.0278864 0)
(-0.0278892 -0.0253762 0)
(-0.0151889 -0.0199152 0)
(-0.00559369 -0.0120633 0)
(-0.000896176 -0.00334031 0)
(-0.00125561 0.0067322 0)
(-0.00747768 0.0208186 0)
(-0.0197783 0.0325544 0)
(-0.0356346 0.040341 0)
(-0.0530155 0.0436266 0)
(-0.0702825 0.0424867 0)
(-0.0859613 0.0374051 0)
(-0.0988218 0.029112 0)
(-0.107933 0.0184652 0)
(-0.112673 0.00637959 0)
(-0.112725 -0.00620682 0)
(-0.108076 -0.0183444 0)
(-0.0990225 -0.0290781 0)
(-0.0861744 -0.0374642 0)
(-0.0704625 -0.0426122 0)
(-0.0531304 -0.0437667 0)
(-0.0356766 -0.0404373 0)
(-0.0197669 -0.0325685 0)
(-0.00745025 -0.0207584 0)
(-0.00124312 -0.00666909 0)
(-0.00158775 0.0110276 0)
(-0.00930046 0.0317576 0)
(-0.0243134 0.0481177 0)
(-0.0433472 0.0585033 0)
(-0.0638743 0.0624698 0)
(-0.0839793 0.0603022 0)
(-0.102022 0.0527632 0)
(-0.116689 0.0408963 0)
(-0.127019 0.0258811 0)
(-0.132385 0.00894893 0)
(-0.13247 -0.00865206 0)
(-0.127258 -0.025663 0)
(-0.117035 -0.0408124 0)
(-0.102408 -0.0528282 0)
(-0.0843326 -0.0604831 0)
(-0.0641379 -0.062694 0)
(-0.0434948 -0.0586821 0)
(-0.0243585 -0.0481836 0)
(-0.00929009 -0.0317052 0)
(-0.00157623 -0.0109467 0)
(-0.00193386 0.0162736 0)
(-0.0111944 0.0449672 0)
(-0.0289998 0.0666533 0)
(-0.0512461 0.0798164 0)
(-0.0748658 0.0842688 0)
(-0.0976643 0.0806514 0)
(-0.117866 0.0701216 0)
(-0.134123 0.0541127 0)
(-0.145496 0.0341643 0)
(-0.151396 0.0118332 0)
(-0.151531 -0.0113324 0)
(-0.145877 -0.0337802 0)
(-0.134685 -0.0539313 0)
(-0.118512 -0.0701735 0)
(-0.0982867 -0.0809 0)
(-0.0753693 -0.084617 0)
(-0.0515734 -0.0801344 0)
(-0.0291494 -0.066828 0)
(-0.0112219 -0.0449621 0)
(-0.00192739 -0.0161864 0)
(-0.00232235 0.0225343 0)
(-0.0132583 0.0605616 0)
(-0.0339963 0.088242 0)
(-0.0594898 0.104267 0)
(-0.0860821 0.108899 0)
(-0.111317 0.10332 0)
(-0.133341 0.0892265 0)
(-0.150848 0.068528 0)
(-0.162995 0.0431568 0)
(-0.169289 0.0149861 0)
(-0.169488 -0.0141701 0)
(-0.163564 -0.0425091 0)
(-0.151699 -0.0681778 0)
(-0.134343 -0.0892312 0)
(-0.112316 -0.103645 0)
(-0.0869336 -0.109421 0)
(-0.0600893 -0.104804 0)
(-0.0343133 -0.0886123 0)
(-0.0133524 -0.0606707 0)
(-0.00232704 -0.0224653 0)
(-0.00278295 0.0299299 0)
(-0.0155899 0.078725 0)
(-0.0394378 0.11298 0)
(-0.0681545 0.131779 0)
(-0.0974413 0.136102 0)
(-0.124634 0.127923 0)
(-0.147906 0.109651 0)
(-0.16611 0.0837632 0)
(-0.178603 0.0526035 0)
(-0.185061 0.0183265 0)
(-0.185336 -0.0170552 0)
(-0.179394 -0.0515663 0)
(-0.167309 -0.0831474 0)
(-0.149349 -0.109555 0)
(-0.126115 -0.128325 0)
(-0.0987533 -0.136855 0)
(-0.0691296 -0.132636 0)
(-0.0399975 -0.113667 0)
(-0.0157875 -0.0790495 0)
(-0.00280726 -0.0299212 0)
(-0.00335448 0.0386402 0)
(-0.0183021 0.0996999 0)
(-0.0454394 0.140928 0)
(-0.0772081 0.16212 0)
(-0.108628 0.165375 0)
(-0.136944 0.153789 0)
(-0.160529 0.13069 0)
(-0.178563 0.0992117 0)
(-0.190745 0.0620998 0)
(-0.197015 0.0217174 0)
(-0.197369 -0.0198337 0)
(-0.191767 -0.0605277 0)
(-0.180135 -0.0982101 0)
(-0.162458 -0.130415 0)
(-0.138979 -0.154249 0)
(-0.110495 -0.16641 0)
(-0.0786589 -0.163414 0)
(-0.0463235 -0.142086 0)
(-0.0186471 -0.10038 0)
(-0.00340945 -0.0387561 0)
(-0.00409893 0.0489242 0)
(-0.0215511 0.123776 0)
(-0.0521049 0.172038 0)
(-0.0864698 0.194777 0)
(-0.119 0.195819 0)
(-0.147076 0.179813 0)
(-0.169538 0.151243 0)
(-0.186127 0.113954 0)
(-0.197052 0.0710395 0)
(-0.202627 0.0249449 0)
(-0.203045 -0.0222988 0)
(-0.198267 -0.0687865 0)
(-0.188024 -0.112434 0)
(-0.171919 -0.150685 0)
(-0.149664 -0.180282 0)
(-0.121461 -0.197163 0)
(-0.0884671 -0.196624 0)
(-0.0533883 -0.173845 0)
(-0.0220917 -0.124992 0)
(-0.0041984 -0.0492554 0)
(-0.0051267 0.0611677 0)
(-0.0255787 0.15128 0)
(-0.0595207 0.206032 0)
(-0.0955189 0.228765 0)
(-0.127425 0.225933 0)
(-0.153159 0.204291 0)
(-0.172421 0.16969 0)
(-0.185799 0.126683 0)
(-0.194195 0.0785731 0)
(-0.198397 0.0276998 0)
(-0.198839 -0.0241885 0)
(-0.195493 -0.0755267 0)
(-0.187865 -0.12452 0)
(-0.175089 -0.168728 0)
(-0.156166 -0.204677 0)
(-0.130409 -0.227566 0)
(-0.0980622 -0.231243 0)
(-0.0612494 -0.208665 0)
(-0.0263614 -0.153243 0)
(-0.00528719 -0.0618339 0)
(-0.00664077 0.0759788 0)
(-0.0307667 0.182539 0)
(-0.0676926 0.242184 0)
(-0.10348 0.262329 0)
(-0.131966 0.253354 0)
(-0.152294 0.224732 0)
(-0.165539 0.183798 0)
(-0.173443 0.135663 0)
(-0.177739 0.0835983 0)
(-0.179741 0.0295731 0)
(-0.180137 -0.0251952 0)
(-0.178923 -0.0797278 0)
(-0.175384 -0.132779 0)
(-0.168153 -0.182307 0)
(-0.155392 -0.224893 0)
(-0.135223 -0.255171 0)
(-0.106437 -0.265435 0)
(-0.0698453 -0.245775 0)
(-0.0318243 -0.185466 0)
(-0.00688094 -0.0771283 0)
(-0.00900639 0.0943526 0)
(-0.0376712 0.217754 0)
(-0.0763143 0.278916 0)
(-0.108546 0.292502 0)
(-0.129321 0.274542 0)
(-0.14005 0.237721 0)
(-0.143764 0.190708 0)
(-0.143571 0.138791 0)
(-0.142047 0.0848187 0)
(-0.140963 0.0300779 0)
(-0.141217 -0.0249955 0)
(-0.142832 -0.0802353 0)
(-0.144946 -0.135205 0)
(-0.145777 -0.188596 0)
(-0.142668 -0.237471 0)
(-0.132349 -0.276325 0)
(-0.111571 -0.296086 0)
(-0.0787424 -0.283475 0)
(-0.039 -0.221823 0)
(-0.00934445 -0.0961554 0)
(-0.0128139 0.11789 0)
(-0.0468841 0.256601 0)
(-0.0840758 0.313047 0)
(-0.106942 0.3145 0)
(-0.113813 0.284512 0)
(-0.109706 0.238952 0)
(-0.100032 0.187143 0)
(-0.0891867 0.133835 0)
(-0.0803218 0.0809323 0)
(-0.0754108 0.0287236 0)
(-0.075413 -0.0233102 0)
(-0.0803853 -0.0759427 0)
(-0.0894691 -0.129725 0)
(-0.100747 -0.184411 0)
(-0.111043 -0.238101 0)
(-0.11582 -0.285926 0)
(-0.109396 -0.318203 0)
(-0.0864133 -0.31836 0)
(-0.0483955 -0.261855 0)
(-0.0132576 -0.120514 0)
(-0.0187191 0.149117 0)
(-0.058166 0.297218 0)
(-0.0867995 0.338474 0)
(-0.0908329 0.321009 0)
(-0.0757356 0.276835 0)
(-0.051265 0.223678 0)
(-0.0249691 0.170012 0)
(-0.00184706 0.118986 0)
(0.0150537 0.0710036 0)
(0.0240512 0.0251627 0)
(0.0243808 -0.0200014 0)
(0.0159636 -0.066127 0)
(-0.00058758 -0.114736 0)
(-0.0237176 -0.166834 0)
(-0.050446 -0.222126 0)
(-0.0757209 -0.277493 0)
(-0.0917544 -0.324249 0)
(-0.0883545 -0.343994 0)
(-0.059586 -0.303429 0)
(-0.0192315 -0.152674 0)
(-0.0262687 0.192206 0)
(-0.0674207 0.333818 0)
(-0.0730106 0.343736 0)
(-0.0444338 0.301332 0)
(0.00103692 0.244108 0)
(0.0495362 0.187763 0)
(0.0931375 0.137494 0)
(0.127801 0.0937132 0)
(0.151696 0.0550063 0)
(0.164099 0.0194032 0)
(0.164753 -0.0151922 0)
(0.153582 -0.0509096 0)
(0.130687 -0.0899082 0)
(0.0966237 -0.134286 0)
(0.0530618 -0.185639 0)
(0.00394488 -0.243743 0)
(-0.0427241 -0.30343 0)
(-0.072738 -0.348563 0)
(-0.0681301 -0.340318 0)
(-0.0266744 -0.196652 0)
(-0.0286681 0.250106 0)
(-0.0579612 0.349858 0)
(-0.0146284 0.309015 0)
(0.0622849 0.242294 0)
(0.14181 0.180543 0)
(0.211582 0.130345 0)
(0.267465 0.0911029 0)
(0.308673 0.0601134 0)
(0.335759 0.0345714 0)
(0.349487 0.0120813 0)
(0.350309 -0.00941922 0)
(0.338184 -0.0318865 0)
(0.312562 -0.0574249 0)
(0.272542 -0.0885262 0)
(0.217372 -0.12817 0)
(0.147606 -0.179321 0)
(0.0671969 -0.242855 0)
(-0.0114949 -0.312147 0)
(-0.0569155 -0.355358 0)
(-0.0284566 -0.254841 0)
(0.0136401 0.288402 0)
(0.0297047 0.302273 0)
(0.152938 0.213909 0)
(0.281401 0.142477 0)
(0.381622 0.0942258 0)
(0.455948 0.0622706 0)
(0.509551 0.0408375 0)
(0.546405 0.0257996 0)
(0.569548 0.0144282 0)
(0.580977 0.00494076 0)
(0.581656 -0.0039472 0)
(0.57159 -0.0133705 0)
(0.549816 -0.0246212 0)
(0.514297 -0.0395079 0)
(0.461874 -0.0608336 0)
(0.388349 -0.0929108 0)
(0.288217 -0.141852 0)
(0.158678 -0.214821 0)
(0.0332943 -0.305062 0)
(0.0153876 -0.291422 0)
(0.304632 0.147055 0)
(0.405636 0.127652 0)
(0.568646 0.0748545 0)
(0.68527 0.041989 0)
(0.752864 0.0239896 0)
(0.794097 0.0140451 0)
(0.820526 0.00837934 0)
(0.837347 0.00494386 0)
(0.847386 0.00263705 0)
(0.852177 0.000860077 0)
(0.85239 -0.000753504 0)
(0.848045 -0.00250241 0)
(0.838512 -0.00474746 0)
(0.822296 -0.00807726 0)
(0.796585 -0.0135864 0)
(0.756164 -0.0233479 0)
(0.689392 -0.0412428 0)
(0.573078 -0.0742817 0)
(0.408903 -0.127713 0)
(0.306178 -0.147622 0)
)
;

boundaryField
{
    movingWall
    {
        type            fixedValue;
        value           uniform (1 0 0);
    }
    fixedWalls
    {
        type            noSlip;
    }
    frontAndBack
    {
        type            empty;
    }
}


// ************************************************************************* //
