/*--------------------------------*- C++ -*----------------------------------*\
  =========                 |
  \\      /  F ield         | OpenFOAM: The Open Source CFD Toolbox
   \\    /   O peration     | Website:  https://openfoam.org
    \\  /    A nd           | Version:  6
     \\/     M anipulation  |
\*---------------------------------------------------------------------------*/
FoamFile
{
    version     2.0;
    format      ascii;
    class       volScalarField;
    location    "0.01";
    object      p;
}
// * * * * * * * * * * * * * * * * * * * * * * * * * * * * * * * * * * * * * //

dimensions      [0 2 -2 0 0 0 0];

internalField   nonuniform List<scalar> 
400
(
-3.6768e-08
-0.00390923
-0.00653888
-0.00605543
-0.00205437
0.00533846
0.0157194
0.0285329
0.0431473
0.0588889
0.0750562
0.0909301
0.105786
0.118907
0.129612
0.137294
0.141517
0.142152
0.139616
0.135744
0.00372772
-0.000297823
-0.00215015
-0.00107068
0.00297566
0.00994897
0.0195822
0.0314289
0.0449397
0.0595021
0.074464
0.0891521
0.102892
0.11503
0.12497
0.132216
0.136469
0.13768
0.135899
0.131905
0.0063982
0.00116561
-0.000891258
0.000300289
0.00436957
0.0112378
0.0206622
0.0322243
0.0454027
0.0596095
0.0742126
0.0885567
0.101985
0.113865
0.12362
0.130777
0.135052
0.136353
0.134325
0.129084
0.00643216
-0.00019269
-0.00282316
-0.00171427
0.00245388
0.00952542
0.0192243
0.0311091
0.0446456
0.059237
0.0742433
0.0889994
0.102836
0.115102
0.125195
0.132604
0.136999
0.138205
0.135563
0.128882
0.00330814
-0.00463972
-0.00787584
-0.00681587
-0.00237428
0.0052141
0.0156178
0.0283458
0.0428245
0.0584252
0.0744778
0.0902859
0.105143
0.118353
0.129255
0.137266
0.141984
0.143143
0.139857
0.131803
-0.00332748
-0.0126617
-0.016512
-0.0153875
-0.0104203
-0.00193458
0.00966058
0.0237991
0.0398449
0.0571167
0.0748961
0.0924373
0.108977
0.123747
0.135999
0.145043
0.150372
0.151617
0.147676
0.138162
-0.0138509
-0.0248216
-0.029326
-0.027968
-0.0221421
-0.0122931
0.00106111
0.0172501
0.0355522
0.0552168
0.0754643
0.0954867
0.114448
0.131488
0.145735
0.156355
0.162687
0.164217
0.159571
0.148306
-0.0287936
-0.0418384
-0.0470654
-0.0452325
-0.0381089
-0.0263192
-0.0105358
0.00843113
0.0297524
0.0525967
0.0761189
0.0994455
0.121661
0.141796
0.158825
0.171713
0.179584
0.181691
0.176264
0.162743
-0.0489554
-0.0647198
-0.0707453
-0.0680759
-0.059057
-0.0445916
-0.0255714
-0.00298777
0.0222027
0.0490863
0.07676
0.104297
0.13071
0.154914
0.1757
0.191769
0.201931
0.205073
0.198786
0.182257
-0.0755338
-0.0949105
-0.10176
-0.0976753
-0.0859137
-0.0678094
-0.04456
-0.0173852
0.0126197
0.044471
0.0772361
0.109969
0.141641
0.171066
0.196835
0.217313
0.230865
0.235799
0.228647
0.208055
-0.110354
-0.134516
-0.14203
-0.135553
-0.119803
-0.0967662
-0.0680525
-0.0351535
0.000701839
0.0384973
0.0773267
0.116292
0.154389
0.190387
0.222683
0.249247
0.267836
0.275863
0.268103
0.24205
-0.156326
-0.186668
-0.194199
-0.183635
-0.16202
-0.132285
-0.0965585
-0.056628
-0.0138175
0.0308988
0.0767373
0.122958
0.168703
0.212806
0.25355
0.288495
0.314629
0.328027
0.320581
0.28742
-0.218363
-0.256127
-0.261884
-0.244269
-0.213927
-0.175062
-0.130386
-0.0819441
-0.0310559
0.0214753
0.0751355
0.129508
0.184067
0.237915
0.289418
0.335836
0.373306
0.39605
0.391375
0.349743
-0.305232
-0.350227
-0.349881
-0.320058
-0.276642
-0.225328
-0.169325
-0.110766
-0.0507636
0.0102586
0.0722613
0.13537
0.199653
0.264808
0.329667
0.39156
0.445969
0.48486
0.488727
0.439282
-0.433156
-0.48021
-0.464014
-0.41317
-0.350238
-0.282112
-0.212044
-0.14182
-0.071961
-0.00220583
0.0681425
0.14001
0.214369
0.291958
0.372713
0.454868
0.53408
0.600341
0.625265
0.575274
-0.631768
-0.662349
-0.610039
-0.523788
-0.432279
-0.342055
-0.255216
-0.17227
-0.0924968
-0.0145171
0.0633918
0.143199
0.227085
0.317324
0.415851
0.52328
0.637427
0.748282
0.818917
0.792298
-0.953837
-0.917447
-0.790846
-0.647827
-0.516074
-0.398215
-0.292841
-0.197412
-0.108918
-0.0243386
0.0593317
0.145256
0.237013
0.33886
0.455794
0.592976
0.753711
0.932692
1.09267
1.14998
-1.51243
-1.26905
-0.995092
-0.768183
-0.585495
-0.43751
-0.31534
-0.210659
-0.116889
-0.0289864
0.0573316
0.146293
0.24279
0.353248
0.486714
0.655479
0.872884
1.14849
1.47806
1.77416
-2.59796
-1.72733
-1.15084
-0.820079
-0.595905
-0.431796
-0.305904
-0.202415
-0.111289
-0.02627
0.0572767
0.143732
0.23836
0.348829
0.487758
0.675795
0.942311
1.33862
2.00244
2.97196
-4.4404
-2.16282
-1.11189
-0.71076
-0.498393
-0.358202
-0.254871
-0.169205
-0.0914623
-0.0169056
0.0574793
0.13454
0.217988
0.31397
0.434516
0.603875
0.86905
1.35774
2.52084
4.91051
)
;

boundaryField
{
    movingWall
    {
        type            zeroGradient;
    }
    fixedWalls
    {
        type            zeroGradient;
    }
    frontAndBack
    {
        type            empty;
    }
}


// ************************************************************************* //
