/*--------------------------------*- C++ -*----------------------------------*\
  =========                 |
  \\      /  F ield         | OpenFOAM: The Open Source CFD Toolbox
   \\    /   O peration     | Website:  https://openfoam.org
    \\  /    A nd           | Version:  6
     \\/     M anipulation  |
\*---------------------------------------------------------------------------*/
FoamFile
{
    version     2.0;
    format      ascii;
    class       surfaceScalarField;
    location    "0.01";
    object      phi;
}
// * * * * * * * * * * * * * * * * * * * * * * * * * * * * * * * * * * * * * //

dimensions      [0 3 -1 0 0 0 0];

internalField   nonuniform List<scalar> 
760
(
-4.43084e-09
4.43109e-09
-5.26516e-08
4.82207e-08
-1.3151e-07
7.88589e-08
-2.22808e-07
9.12978e-08
-3.13548e-07
9.07402e-08
-3.95368e-07
8.18193e-08
-4.63104e-07
6.77368e-08
-5.13629e-07
5.05243e-08
-5.45053e-07
3.14246e-08
-5.563e-07
1.12462e-08
-5.46912e-07
-9.38807e-09
-5.17026e-07
-2.98857e-08
-4.67462e-07
-4.95648e-08
-3.99956e-07
-6.75056e-08
-3.17643e-07
-8.23127e-08
-2.25863e-07
-9.17804e-08
-1.33307e-07
-9.25561e-08
-5.33646e-08
-7.99422e-08
-4.46849e-09
-4.88961e-08
-4.46874e-09
-4.75859e-08
5.20169e-08
-1.75757e-07
1.76392e-07
-3.57152e-07
2.60253e-07
-5.61477e-07
2.95623e-07
-7.63968e-07
2.93232e-07
-9.47072e-07
2.64923e-07
-1.09917e-06
2.19831e-07
-1.21283e-06
1.64184e-07
-1.28346e-06
1.02059e-07
-1.30846e-06
3.62508e-08
-1.28681e-06
-3.10413e-08
-1.21896e-06
-9.77394e-08
-1.10704e-06
-1.61484e-07
-9.55376e-07
-2.19169e-07
-7.71401e-07
-2.66288e-07
-5.67053e-07
-2.96128e-07
-3.60461e-07
-2.99148e-07
-1.77065e-07
-2.63339e-07
-4.77451e-08
-1.78216e-07
-5.22136e-08
-8.10395e-08
1.33056e-07
-2.71397e-07
3.66749e-07
-5.26826e-07
5.15683e-07
-8.0826e-07
5.77057e-07
-1.08462e-06
5.69588e-07
-1.33355e-06
5.13854e-07
-1.53996e-06
4.26242e-07
-1.69405e-06
3.18271e-07
-1.78969e-06
1.97706e-07
-1.82344e-06
6.99933e-08
-1.79392e-06
-6.0557e-08
-1.70178e-06
-1.89878e-07
-1.5499e-06
-3.1337e-07
-1.34403e-06
-4.25032e-07
-1.094e-06
-5.16322e-07
-8.15283e-07
-5.74844e-07
-5.30973e-07
-5.83458e-07
-2.73045e-07
-5.21266e-07
-8.12974e-08
-3.69964e-07
-1.33511e-07
-1.03546e-07
2.36602e-07
-3.41854e-07
6.05057e-07
-6.55586e-07
8.29415e-07
-9.96629e-07
9.18099e-07
-1.32857e-06
9.01534e-07
-1.62584e-06
8.11118e-07
-1.87137e-06
6.71769e-07
-2.0542e-06
5.01102e-07
-2.16757e-06
3.11075e-07
-2.20766e-06
1.10083e-07
-2.17295e-06
-9.52637e-08
-2.06407e-06
-2.98758e-07
-1.88408e-06
-4.93357e-07
-1.6393e-06
-6.69814e-07
-1.34065e-06
-8.14971e-07
-1.00567e-06
-9.09826e-07
-6.60889e-07
-9.28241e-07
-3.43896e-07
-8.3826e-07
-1.03783e-07
-6.10076e-07
-2.37294e-07
-1.21425e-07
3.58027e-07
-4.01676e-07
8.85308e-07
-7.68238e-07
1.19598e-06
-1.16345e-06
1.31331e-06
-1.54519e-06
1.28327e-06
-1.88484e-06
1.15077e-06
-2.16396e-06
9.50889e-07
-2.37112e-06
7.08261e-07
-2.49948e-06
4.3944e-07
-2.54526e-06
1.55861e-07
-2.50686e-06
-1.3366e-07
-2.38471e-06
-4.20916e-07
-2.18158e-06
-6.96487e-07
-1.90365e-06
-9.47737e-07
-1.56226e-06
-1.15637e-06
-1.17641e-06
-1.29568e-06
-7.75967e-07
-1.32868e-06
-4.0472e-07
-1.20951e-06
-1.21794e-07
-8.93002e-07
-3.59088e-07
-1.39816e-07
4.97843e-07
-4.64312e-07
1.2098e-06
-8.87365e-07
1.61903e-06
-1.34042e-06
1.76637e-06
-1.77467e-06
1.71752e-06
-2.15814e-06
1.53424e-06
-2.47128e-06
1.26403e-06
-2.70271e-06
9.39693e-07
-2.84607e-06
5.82795e-07
-2.89793e-06
2.07722e-07
-2.85673e-06
-1.74864e-07
-2.72244e-06
-5.55202e-07
-2.49709e-06
-9.21838e-07
-2.18606e-06
-1.25877e-06
-1.80044e-06
-1.54199e-06
-1.36044e-06
-1.73567e-06
-8.99708e-07
-1.78941e-06
-4.69476e-07
-1.63974e-06
-1.4061e-07
-1.22187e-06
-4.99698e-07
-1.62478e-07
6.60322e-07
-5.40586e-07
1.58791e-06
-1.03138e-06
2.10982e-06
-1.55277e-06
2.28777e-06
-2.04776e-06
2.2125e-06
-2.4807e-06
1.96718e-06
-2.83131e-06
1.61464e-06
-3.089e-06
1.19737e-06
-3.24856e-06
7.42357e-07
-3.30744e-06
2.66605e-07
-3.26422e-06
-2.18089e-07
-3.11816e-06
-7.01258e-07
-2.86987e-06
-1.17013e-06
-2.52304e-06
-1.6056e-06
-2.08762e-06
-1.9774e-06
-1.58456e-06
-2.23873e-06
-1.05171e-06
-2.32226e-06
-5.49641e-07
-2.14181e-06
-1.64169e-07
-1.60734e-06
-6.63867e-07
-1.92632e-07
8.52954e-07
-6.40116e-07
2.0354e-06
-1.21643e-06
2.68614e-06
-1.82174e-06
2.89307e-06
-2.38893e-06
2.77969e-06
-2.87862e-06
2.45688e-06
-3.27075e-06
2.00677e-06
-3.55674e-06
1.48336e-06
-3.73371e-06
9.19326e-07
-3.80069e-06
3.33587e-07
-3.75661e-06
-2.62164e-07
-3.5997e-06
-8.58169e-07
-3.32822e-06
-1.44161e-06
-2.94277e-06
-1.99104e-06
-2.45064e-06
-2.46953e-06
-1.87233e-06
-2.81705e-06
-1.25001e-06
-2.94459e-06
-6.55917e-07
-2.7359e-06
-1.96008e-07
-2.06725e-06
-8.59875e-07
-2.33949e-07
1.0869e-06
-7.73554e-07
2.575e-06
-1.45956e-06
3.37215e-06
-2.16814e-06
3.60165e-06
-2.82009e-06
3.43164e-06
-3.37298e-06
3.00977e-06
-3.80888e-06
2.44267e-06
-4.12341e-06
1.79789e-06
-4.31773e-06
1.11365e-06
-4.3936e-06
4.09458e-07
-4.35069e-06
-3.0508e-07
-4.18572e-06
-1.02314e-06
-3.89335e-06
-1.73398e-06
-3.46903e-06
-2.41536e-06
-2.91473e-06
-3.02383e-06
-2.24806e-06
-3.48372e-06
-1.51461e-06
-3.67804e-06
-8.00832e-07
-3.44968e-06
-2.4041e-07
-2.62767e-06
-1.10028e-06
-2.91774e-07
1.37868e-06
-9.5516e-07
3.23838e-06
-1.78169e-06
4.19868e-06
-2.61513e-06
4.4351e-06
-3.36266e-06
4.17917e-06
-3.9811e-06
3.62821e-06
-4.45828e-06
2.91985e-06
-4.7974e-06
2.13701e-06
-5.00627e-06
1.32253e-06
-5.09096e-06
4.94149e-07
-5.05246e-06
-3.43582e-07
-4.88556e-06
-1.19004e-06
-4.57964e-06
-2.0399e-06
-4.12209e-06
-2.87292e-06
-3.50539e-06
-3.64053e-06
-2.73971e-06
-4.24939e-06
-1.87101e-06
-4.54674e-06
-1.00177e-06
-4.31891e-06
-3.03841e-07
-3.3256e-06
-1.40413e-06
-3.7468e-07
1.75336e-06
-1.20541e-06
4.06912e-06
-2.20958e-06
5.20284e-06
-3.18822e-06
5.41374e-06
-4.0354e-06
5.02635e-06
-4.71256e-06
4.30537e-06
-5.21941e-06
3.4267e-06
-5.57175e-06
2.48935e-06
-5.78753e-06
1.53831e-06
-5.87917e-06
5.8579e-07
-5.84982e-06
-3.72934e-07
-5.69196e-06
-1.3479e-06
-5.38794e-06
-2.34392e-06
-4.91329e-06
-3.34757e-06
-4.24508e-06
-4.30874e-06
-3.37827e-06
-5.11621e-06
-2.35208e-06
-5.57293e-06
-1.284e-06
-5.38699e-06
-3.96844e-07
-4.21276e-06
-1.80097e-06
-4.96536e-07
2.24989e-06
-1.55286e-06
5.12544e-06
-2.77428e-06
6.42426e-06
-3.90895e-06
6.54841e-06
-4.84371e-06
5.9611e-06
-5.55518e-06
5.01684e-06
-6.06448e-06
3.936e-06
-6.40676e-06
2.83162e-06
-6.61413e-06
1.74568e-06
-6.70757e-06
6.79228e-07
-6.69339e-06
-3.8711e-07
-6.56179e-06
-1.4795e-06
-6.28662e-06
-2.61909e-06
-5.82773e-06
-3.80646e-06
-5.13915e-06
-4.99732e-06
-4.18876e-06
-6.06659e-06
-2.99513e-06
-6.76656e-06
-1.68242e-06
-6.6997e-06
-5.36441e-07
-5.35874e-06
-2.33741e-06
-6.78929e-07
2.92882e-06
-2.03273e-06
6.47924e-06
-3.50058e-06
7.89212e-06
-4.77463e-06
7.82245e-06
-5.75175e-06
6.93823e-06
-6.44247e-06
5.70756e-06
-6.90259e-06
4.39612e-06
-7.19402e-06
3.12306e-06
-7.36658e-06
1.91824e-06
-7.45132e-06
7.63964e-07
-7.45862e-06
-3.79806e-07
-7.37712e-06
-1.56101e-06
-7.17222e-06
-2.82399e-06
-6.7857e-06
-4.19298e-06
-6.14102e-06
-5.642e-06
-5.16332e-06
-7.0443e-06
-3.8266e-06
-8.10328e-06
-2.2382e-06
-8.2881e-06
-7.4862e-07
-6.84832e-06
-3.08603e-06
-9.52957e-07
3.88178e-06
-2.67601e-06
8.20229e-06
-4.37612e-06
9.59223e-06
-5.71027e-06
9.1566e-06
-6.62407e-06
7.85203e-06
-7.19069e-06
6.27418e-06
-7.51573e-06
4.72116e-06
-7.69313e-06
3.30046e-06
-7.79072e-06
2.01583e-06
-7.84883e-06
8.22071e-07
-7.88202e-06
-3.46613e-07
-7.87922e-06
-1.56381e-06
-7.80052e-06
-2.90268e-06
-7.57196e-06
-4.42154e-06
-7.08321e-06
-6.13074e-06
-6.20106e-06
-7.92646e-06
-4.82041e-06
-9.48393e-06
-2.98171e-06
-1.01268e-05
-1.06896e-06
-8.76108e-06
-4.15499e-06
-1.35653e-06
5.23831e-06
-3.47503e-06
1.03208e-05
-5.28e-06
1.13972e-05
-6.47363e-06
1.03502e-05
-7.12175e-06
8.50015e-06
-7.39586e-06
6.54829e-06
-7.46083e-06
4.78612e-06
-7.43908e-06
3.27871e-06
-7.40923e-06
1.98598e-06
-7.41512e-06
8.27966e-07
-7.47368e-06
-2.88056e-07
-7.57717e-06
-1.46032e-06
-7.68846e-06
-2.79139e-06
-7.72918e-06
-4.38083e-06
-7.56457e-06
-6.29535e-06
-6.99827e-06
-8.49275e-06
-5.80883e-06
-1.06734e-05
-3.88401e-06
-1.20516e-05
-1.53516e-06
-1.11099e-05
-5.69015e-06
-1.91284e-06
7.15115e-06
-4.29372e-06
1.27017e-05
-5.84003e-06
1.29435e-05
-6.49586e-06
1.10061e-05
-6.55195e-06
8.55624e-06
-6.302e-06
6.29834e-06
-5.95696e-06
4.44109e-06
-5.64467e-06
2.96642e-06
-5.43428e-06
1.77558e-06
-5.36e-06
7.53689e-07
-5.43608e-06
-2.11974e-07
-5.66181e-06
-1.23459e-06
-6.01623e-06
-2.43697e-06
-6.44079e-06
-3.95627e-06
-6.80836e-06
-5.92778e-06
-6.88594e-06
-8.41517e-06
-6.32261e-06
-1.12367e-05
-4.74313e-06
-1.36311e-05
-2.15235e-06
-1.37007e-05
-7.8425e-06
-2.55046e-06
9.70161e-06
-4.6564e-06
1.48076e-05
-5.1786e-06
1.34657e-05
-4.66221e-06
1.04897e-05
-3.71052e-06
7.60455e-06
-2.70166e-06
5.28949e-06
-1.82907e-06
3.5685e-06
-1.17286e-06
2.3102e-06
-7.57441e-07
1.36016e-06
-5.87605e-07
5.83852e-07
-6.66887e-07
-1.32692e-07
-1.00418e-06
-8.97304e-07
-1.61034e-06
-1.8308e-06
-2.4812e-06
-3.08541e-06
-3.55743e-06
-4.85154e-06
-4.65193e-06
-7.32068e-06
-5.35146e-06
-1.05372e-05
-4.95496e-06
-1.40276e-05
-2.78633e-06
-1.58693e-05
-1.06288e-05
-2.86218e-06
1.25638e-05
-3.26823e-06
1.52137e-05
-1.49311e-06
1.16906e-05
9.19021e-07
8.07755e-06
3.17443e-06
5.34914e-06
5.00108e-06
3.46284e-06
6.35918e-06
2.2104e-06
7.29322e-06
1.37616e-06
7.86124e-06
7.92144e-07
8.10478e-06
3.40309e-07
8.03787e-06
-6.57818e-08
7.6429e-06
-5.02334e-07
6.86933e-06
-1.05723e-06
5.63889e-06
-1.85497e-06
3.87177e-06
-3.08442e-06
1.56424e-06
-5.01315e-06
-1.03394e-06
-7.939e-06
-3.0842e-06
-1.19773e-05
-2.89791e-06
-1.60556e-05
-1.35267e-05
-1.00815e-06
1.35719e-05
3.3348e-06
1.08707e-05
8.64467e-06
6.38072e-06
1.30106e-05
3.7116e-06
1.61879e-05
2.17184e-06
1.83765e-05
1.27427e-06
1.98332e-05
7.53633e-07
2.07649e-05
4.44552e-07
2.13097e-05
2.47309e-07
2.15459e-05
1.0412e-07
2.15011e-05
-2.09724e-08
2.11555e-05
-1.56789e-07
2.04358e-05
-3.37542e-07
1.91993e-05
-6.18391e-07
1.72149e-05
-1.10002e-06
1.41696e-05
-1.96793e-06
9.78385e-06
-3.55321e-06
4.24033e-06
-6.43381e-06
-5.51194e-07
-1.12641e-05
-1.40779e-05
1.35719e-05
2.44426e-05
3.08234e-05
3.4535e-05
3.67068e-05
3.79811e-05
3.87347e-05
3.91793e-05
3.94266e-05
3.95307e-05
3.95097e-05
3.93529e-05
3.90154e-05
3.8397e-05
3.7297e-05
3.5329e-05
3.17758e-05
2.5342e-05
1.40779e-05
)
;

boundaryField
{
    movingWall
    {
        type            calculated;
        value           uniform 0;
    }
    fixedWalls
    {
        type            calculated;
        value           uniform 0;
    }
    frontAndBack
    {
        type            empty;
        value           nonuniform 0();
    }
}


// ************************************************************************* //
