/*--------------------------------*- C++ -*----------------------------------*\
  =========                 |
  \\      /  F ield         | OpenFOAM: The Open Source CFD Toolbox
   \\    /   O peration     | Website:  https://openfoam.org
    \\  /    A nd           | Version:  6
     \\/     M anipulation  |
\*---------------------------------------------------------------------------*/
FoamFile
{
    version     2.0;
    format      ascii;
    class       volVectorField;
    location    "0.01";
    object      U;
}
// * * * * * * * * * * * * * * * * * * * * * * * * * * * * * * * * * * * * * //

dimensions      [0 1 -1 0 0 0 0];

internalField   nonuniform List<vector> 
400
(
(2.6166e-05 -3.01864e-05 0)
(-0.000438334 0.000320531 0)
(-0.00175785 0.000583192 0)
(-0.00352053 0.000689801 0)
(-0.00538414 0.000687455 0)
(-0.00713703 0.000618762 0)
(-0.00864973 0.000511159 0)
(-0.0098429 0.000380894 0)
(-0.0106686 0.00023724 0)
(-0.0110985 8.58825e-05 0)
(-0.0111176 -6.89129e-05 0)
(-0.0107227 -0.000223063 0)
(-0.00992273 -0.000371788 0)
(-0.00874175 -0.000508446 0)
(-0.00722615 -0.000622457 0)
(-0.00545719 -0.000696095 0)
(-0.00356956 -0.000700679 0)
(-0.00178095 -0.00059328 0)
(-0.000443581 -0.00032864 0)
(2.9022e-05 2.78086e-05 0)
(-0.000314514 0.000423651 0)
(-0.00193439 0.00192946 0)
(-0.00514161 0.0029882 0)
(-0.00914435 0.00343564 0)
(-0.0133107 0.00341665 0)
(-0.0172304 0.00308652 0)
(-0.0206241 0.00255966 0)
(-0.0233079 0.00191131 0)
(-0.0251666 0.00118904 0)
(-0.0261309 0.000424648 0)
(-0.0261656 -0.000357122 0)
(-0.0252647 -0.00113281 0)
(-0.0234528 -0.00187561 0)
(-0.0207912 -0.00254981 0)
(-0.0173925 -0.00310241 0)
(-0.0134439 -0.00345213 0)
(-0.00923374 -0.0034794 0)
(-0.00518523 -0.00302695 0)
(-0.00194386 -0.00195396 0)
(-0.000311849 -0.000425959 0)
(-0.000587622 0.00173462 0)
(-0.00311944 0.00516696 0)
(-0.00773994 0.00742522 0)
(-0.0133086 0.0083752 0)
(-0.0190158 0.00829288 0)
(-0.0243528 0.00749124 0)
(-0.0289623 0.0062178 0)
(-0.032603 0.00464475 0)
(-0.0351217 0.00288681 0)
(-0.0364263 0.00102381 0)
(-0.03647 -0.000881109 0)
(-0.0352456 -0.00276829 0)
(-0.032786 -0.00457023 0)
(-0.0291735 -0.00619868 0)
(-0.0245577 -0.00752724 0)
(-0.0191837 -0.00837066 0)
(-0.0134206 -0.00847025 0)
(-0.00779451 -0.00750841 0)
(-0.0031331 -0.0052155 0)
(-0.000586786 -0.00174163 0)
(-0.000761425 0.00361212 0)
(-0.00396393 0.00951821 0)
(-0.00969388 0.013197 0)
(-0.0164864 0.0146884 0)
(-0.0233681 0.0144663 0)
(-0.0297568 0.0130385 0)
(-0.0352485 0.0108108 0)
(-0.0395722 0.00807026 0)
(-0.042558 0.00501199 0)
(-0.0441044 0.0017734 0)
(-0.0441601 -0.00153657 0)
(-0.0427159 -0.00481524 0)
(-0.0398061 -0.0079466 0)
(-0.0355193 -0.0107794 0)
(-0.0300204 -0.0130992 0)
(-0.0235845 -0.014597 0)
(-0.0166304 -0.014848 0)
(-0.00976301 -0.0133359 0)
(-0.00398014 -0.00959709 0)
(-0.000760172 -0.00362249 0)
(-0.000890514 0.00586908 0)
(-0.00465848 0.0147139 0)
(-0.0113826 0.0200081 0)
(-0.0192897 0.0220592 0)
(-0.0272328 0.021614 0)
(-0.0345533 0.0194211 0)
(-0.0408089 0.0160713 0)
(-0.045713 0.0119822 0)
(-0.0490919 0.00743685 0)
(-0.0508451 0.00263339 0)
(-0.0509214 -0.00227292 0)
(-0.0493087 -0.00713663 0)
(-0.0460358 -0.0117923 0)
(-0.0411857 -0.0160214 0)
(-0.0349237 -0.0195122 0)
(-0.0275409 -0.0218135 0)
(-0.019498 -0.0223046 0)
(-0.0114847 -0.0202224 0)
(-0.00468337 -0.0148347 0)
(-0.000889239 -0.00588469 0)
(-0.00102069 0.00847085 0)
(-0.00537926 0.0207335 0)
(-0.0131617 0.027868 0)
(-0.0222625 0.0305066 0)
(-0.0313336 0.0297455 0)
(-0.0396268 0.0266329 0)
(-0.0466628 0.0219823 0)
(-0.0521481 0.0163618 0)
(-0.0559173 0.0101502 0)
(-0.0578801 0.00360674 0)
(-0.0579901 -0.00307164 0)
(-0.0562309 -0.00970236 0)
(-0.0526185 -0.0160744 0)
(-0.047218 -0.021901 0)
(-0.0401811 -0.026762 0)
(-0.0318041 -0.03004 0)
(-0.0225898 -0.0308752 0)
(-0.0133295 -0.0281946 0)
(-0.00542501 -0.02092 0)
(-0.00102105 -0.00849642 0)
(-0.00118363 0.0114698 0)
(-0.00626358 0.0277036 0)
(-0.0153226 0.0369399 0)
(-0.025846 0.0401902 0)
(-0.0362367 0.0389906 0)
(-0.0456407 0.0347653 0)
(-0.0535448 0.0286009 0)
(-0.059662 0.0212424 0)
(-0.0638503 0.0131734 0)
(-0.0660428 0.00470982 0)
(-0.066204 -0.00391937 0)
(-0.0643121 -0.0125069 0)
(-0.0603603 -0.020806 0)
(-0.0543799 -0.0284638 0)
(-0.0464893 -0.0349403 0)
(-0.036974 -0.0394191 0)
(-0.0263754 -0.0407422 0)
(-0.0156075 -0.0374417 0)
(-0.00634995 -0.0279999 0)
(-0.00118852 -0.0115173 0)
(-0.00140566 0.0149834 0)
(-0.00743256 0.0358758 0)
(-0.0181255 0.0475163 0)
(-0.0304225 0.0513762 0)
(-0.0424075 0.0495553 0)
(-0.0531069 0.043958 0)
(-0.0619866 0.036012 0)
(-0.0687906 0.0266727 0)
(-0.0734262 0.0165356 0)
(-0.0758686 0.00596448 0)
(-0.0761038 -0.00479857 0)
(-0.0741031 -0.0155431 0)
(-0.0698242 -0.0260056 0)
(-0.0632403 -0.0357758 0)
(-0.0544058 -0.0441832 0)
(-0.0435649 -0.0501711 0)
(-0.0312812 -0.0522025 0)
(-0.0186091 -0.0482949 0)
(-0.00759237 -0.0363581 0)
(-0.00142027 -0.0150769 0)
(-0.00171779 0.0191946 0)
(-0.00902425 0.04563 0)
(-0.0218539 0.0600161 0)
(-0.0363838 0.0644198 0)
(-0.050285 0.06169 0)
(-0.0624621 0.0543604 0)
(-0.0723942 0.0442903 0)
(-0.0799004 0.0326849 0)
(-0.0849779 0.0202545 0)
(-0.0876742 0.00739159 0)
(-0.0880115 -0.0056794 0)
(-0.085954 -0.01878 0)
(-0.081407 -0.0316627 0)
(-0.0742516 -0.0438807 0)
(-0.0644288 -0.0546284 0)
(-0.0520861 -0.0625605 0)
(-0.0377668 -0.0656519 0)
(-0.0226685 -0.0612302 0)
(-0.00931423 -0.0464258 0)
(-0.00175214 -0.0193785 0)
(-0.00216848 0.0243721 0)
(-0.0112339 0.0575006 0)
(-0.0268753 0.074989 0)
(-0.0441916 0.0797408 0)
(-0.06033 0.0756453 0)
(-0.0741006 0.0660792 0)
(-0.0850661 0.0534502 0)
(-0.0931957 0.0392545 0)
(-0.0986378 0.0243095 0)
(-0.101554 0.00900161 0)
(-0.102025 -0.00651107 0)
(-0.100009 -0.0221359 0)
(-0.0953391 -0.0376939 0)
(-0.0877588 -0.0527431 0)
(-0.0770231 -0.066354 0)
(-0.0630905 -0.0768448 0)
(-0.0463926 -0.08156 0)
(-0.0282341 -0.0768805 0)
(-0.0117532 -0.0588204 0)
(-0.00224239 -0.0247275 0)
(-0.00284208 0.0309186 0)
(-0.0143622 0.0722287 0)
(-0.0336923 0.0931222 0)
(-0.0544004 0.0977827 0)
(-0.0730038 0.0916017 0)
(-0.0883105 0.0790998 0)
(-0.100098 0.0633751 0)
(-0.108601 0.046246 0)
(-0.114205 0.0286073 0)
(-0.117239 0.01078 0)
(-0.117871 -0.00721488 0)
(-0.116059 -0.0254477 0)
(-0.111542 -0.0438876 0)
(-0.103875 -0.0621708 0)
(-0.0925302 -0.0792878 0)
(-0.0771337 -0.0931895 0)
(-0.0578364 -0.100421 0)
(-0.0359259 -0.0960469 0)
(-0.0152809 -0.0744147 0)
(-0.00299413 -0.0315935 0)
(-0.00388745 0.0394576 0)
(-0.0188698 0.0908305 0)
(-0.0429565 0.115216 0)
(-0.0675807 0.118913 0)
(-0.0885938 0.109537 0)
(-0.10502 0.0931583 0)
(-0.117074 0.0737119 0)
(-0.125421 0.053336 0)
(-0.130787 0.0329321 0)
(-0.133728 0.0126637 0)
(-0.134527 -0.00768233 0)
(-0.133154 -0.0284404 0)
(-0.129244 -0.049838 0)
(-0.122114 -0.0717078 0)
(-0.110844 -0.0930621 0)
(-0.0945352 -0.111508 0)
(-0.0727725 -0.122625 0)
(-0.0465353 -0.119665 0)
(-0.0204639 -0.0944215 0)
(-0.0041897 -0.0407183 0)
(-0.00556059 0.0509709 0)
(-0.0254174 0.114642 0)
(-0.0553617 0.142053 0)
(-0.0840042 0.143187 0)
(-0.106717 0.128978 0)
(-0.123181 0.107531 0)
(-0.134388 0.0837162 0)
(-0.141631 0.059909 0)
(-0.146078 0.0368806 0)
(-0.148552 0.0145046 0)
(-0.149473 -0.00778499 0)
(-0.148837 -0.0307037 0)
(-0.14619 -0.0548739 0)
(-0.140596 -0.0804947 0)
(-0.130662 -0.106793 0)
(-0.11474 -0.131175 0)
(-0.0914357 -0.148169 0)
(-0.0608491 -0.148629 0)
(-0.0280945 -0.120437 0)
(-0.006139 -0.053282 0)
(-0.0082788 0.0669877 0)
(-0.0348279 0.145229 0)
(-0.0712326 0.173998 0)
(-0.102827 0.16985 0)
(-0.125225 0.14856 0)
(-0.139534 0.120715 0)
(-0.147958 0.0920497 0)
(-0.1526 0.0649378 0)
(-0.155097 0.0397916 0)
(-0.156528 0.0160238 0)
(-0.157432 -0.00740535 0)
(-0.157851 -0.0316999 0)
(-0.157297 -0.0580146 0)
(-0.15465 -0.0871271 0)
(-0.148062 -0.118787 0)
(-0.134987 -0.150547 0)
(-0.112559 -0.176054 0)
(-0.079056 -0.183262 0)
(-0.0390862 -0.154279 0)
(-0.00932994 -0.0711102 0)
(-0.0126468 0.0897648 0)
(-0.0477843 0.183885 0)
(-0.0894405 0.21006 0)
(-0.120354 0.196435 0)
(-0.138156 0.165379 0)
(-0.146506 0.130052 0)
(-0.149213 0.0965976 0)
(-0.149185 0.0669118 0)
(-0.148393 0.0407147 0)
(-0.148018 0.0167787 0)
(-0.148643 -0.00649045 0)
(-0.150363 -0.0308315 0)
(-0.152767 -0.0580153 0)
(-0.154765 -0.0896009 0)
(-0.154291 -0.126268 0)
(-0.148022 -0.166352 0)
(-0.13129 -0.203288 0)
(-0.099308 -0.22217 0)
(-0.0539721 -0.197282 0)
(-0.0144109 -0.0968117 0)
(-0.0192627 0.12242 0)
(-0.0637498 0.230264 0)
(-0.104946 0.246026 0)
(-0.12686 0.217336 0)
(-0.132558 0.174225 0)
(-0.129382 0.13146 0)
(-0.122662 0.0944837 0)
(-0.115659 0.0639519 0)
(-0.110212 0.038517 0)
(-0.107265 0.0162017 0)
(-0.107256 -0.00510675 0)
(-0.11032 -0.0275929 0)
(-0.11629 -0.0535823 0)
(-0.124476 -0.0854947 0)
(-0.133191 -0.12533 0)
(-0.139007 -0.173109 0)
(-0.135811 -0.223495 0)
(-0.114799 -0.26014 0)
(-0.0713748 -0.248554 0)
(-0.0218299 -0.133783 0)
(-0.0276113 0.16931 0)
(-0.0778593 0.279305 0)
(-0.103787 0.271027 0)
(-0.101613 0.221855 0)
(-0.0846961 0.167029 0)
(-0.0638021 0.119665 0)
(-0.0444174 0.0825673 0)
(-0.0289306 0.0542972 0)
(-0.0181709 0.0322378 0)
(-0.0123129 0.0137802 0)
(-0.0113866 -0.00345591 0)
(-0.0155089 -0.021796 0)
(-0.0249186 -0.043809 0)
(-0.0398004 -0.0725464 0)
(-0.0597635 -0.111414 0)
(-0.0827385 -0.162967 0)
(-0.103013 -0.225346 0)
(-0.108722 -0.284791 0)
(-0.0842456 -0.301462 0)
(-0.0302837 -0.18624 0)
(-0.031175 0.233294 0)
(-0.0723689 0.313665 0)
(-0.053512 0.263128 0)
(-0.00636233 0.193703 0)
(0.0425517 0.134377 0)
(0.0838854 0.0901634 0)
(0.115646 0.0591248 0)
(0.138315 0.0375097 0)
(0.153101 0.0218448 0)
(0.161083 0.00943132 0)
(0.162846 -0.00185203 0)
(0.158367 -0.0139448 0)
(0.146954 -0.0290588 0)
(0.127262 -0.050163 0)
(0.0975348 -0.0813763 0)
(0.0565066 -0.127719 0)
(0.00545958 -0.192912 0)
(-0.046548 -0.272815 0)
(-0.0713403 -0.335094 0)
(-0.0310257 -0.254317 0)
(0.00875965 0.280722 0)
(0.0139183 0.286767 0)
(0.11643 0.195353 0)
(0.220699 0.123604 0)
(0.296852 0.0765334 0)
(0.349321 0.0469186 0)
(0.384762 0.0286809 0)
(0.407946 0.0173108 0)
(0.422259 0.00979042 0)
(0.429839 0.00421624 0)
(0.431723 -0.000683465 0)
(0.427993 -0.00596992 0)
(0.417754 -0.012886 0)
(0.3989 -0.0233288 0)
(0.367793 -0.0405056 0)
(0.318977 -0.0697244 0)
(0.244602 -0.118903 0)
(0.138154 -0.19727 0)
(0.029079 -0.298135 0)
(0.0177468 -0.295124 0)
(0.301771 0.146347 0)
(0.397564 0.126174 0)
(0.551304 0.0731452 0)
(0.658624 0.0398757 0)
(0.716977 0.0216285 0)
(0.749552 0.0117685 0)
(0.768744 0.00648955 0)
(0.780162 0.00361579 0)
(0.786772 0.00193773 0)
(0.790139 0.00080891 0)
(0.790945 -0.000135118 0)
(0.789258 -0.00116177 0)
(0.784554 -0.00258745 0)
(0.775466 -0.00496002 0)
(0.759213 -0.00937239 0)
(0.730331 -0.0180292 0)
(0.67646 -0.0352427 0)
(0.572058 -0.0688591 0)
(0.414033 -0.125134 0)
(0.310343 -0.148783 0)
)
;

boundaryField
{
    movingWall
    {
        type            fixedValue;
        value           uniform (1 0 0);
    }
    fixedWalls
    {
        type            noSlip;
    }
    frontAndBack
    {
        type            empty;
    }
}


// ************************************************************************* //
