/*--------------------------------*- C++ -*----------------------------------*\
  =========                 |
  \\      /  F ield         | OpenFOAM: The Open Source CFD Toolbox
   \\    /   O peration     | Website:  https://openfoam.org
    \\  /    A nd           | Version:  6
     \\/     M anipulation  |
\*---------------------------------------------------------------------------*/
FoamFile
{
    version     2.0;
    format      ascii;
    class       surfaceScalarField;
    location    "0.035";
    object      phi;
}
// * * * * * * * * * * * * * * * * * * * * * * * * * * * * * * * * * * * * * //

dimensions      [0 3 -1 0 0 0 0];

internalField   nonuniform List<scalar> 
760
(
4.30603e-09
-4.30618e-09
-3.30868e-08
3.73929e-08
-1.08627e-07
7.55408e-08
-2.06863e-07
9.82355e-08
-3.13028e-07
1.06165e-07
-4.15036e-07
1.02009e-07
-5.03708e-07
8.86715e-08
-5.72448e-07
6.87401e-08
-6.16738e-07
4.429e-08
-6.33716e-07
1.69776e-08
-6.2198e-07
-1.17364e-08
-5.81648e-07
-4.03312e-08
-5.1466e-07
-6.69883e-08
-4.25246e-07
-8.94139e-08
-3.20473e-07
-1.04773e-07
-2.10643e-07
-1.09829e-07
-1.09245e-07
-1.01398e-07
-3.21417e-08
-7.71028e-08
5.06832e-09
-3.721e-08
5.06842e-09
-3.5991e-08
3.16848e-08
-1.56907e-07
1.58309e-07
-3.4884e-07
2.67473e-07
-5.84579e-07
3.33974e-07
-8.35167e-07
3.56754e-07
-1.07494e-06
3.41778e-07
-1.28325e-06
2.96984e-07
-1.44464e-06
2.30134e-07
-1.54828e-06
1.47928e-07
-1.58734e-06
5.60344e-08
-1.55868e-06
-4.03932e-08
-1.46299e-06
-1.36019e-07
-1.30533e-06
-2.24655e-07
-1.09594e-06
-2.988e-07
-8.51136e-07
-3.49578e-07
-5.93597e-07
-3.67368e-07
-3.51575e-07
-3.43421e-07
-1.56104e-07
-2.72574e-07
-3.4873e-08
-1.58441e-07
-2.98046e-08
-7.62663e-08
1.07951e-07
-2.76859e-07
3.58902e-07
-5.69461e-07
5.60076e-07
-9.15807e-07
6.8032e-07
-1.27749e-06
7.18433e-07
-1.62044e-06
6.84732e-07
-1.91698e-06
5.93524e-07
-2.1461e-06
4.59256e-07
-2.29296e-06
2.94784e-07
-2.34817e-06
1.11247e-07
-2.30746e-06
-8.11002e-08
-2.17182e-06
-2.7166e-07
-1.9482e-06
-4.48278e-07
-1.65057e-06
-5.96431e-07
-1.30093e-06
-6.99217e-07
-9.29632e-07
-7.38667e-07
-5.74238e-07
-6.98814e-07
-2.76183e-07
-5.70629e-07
-7.47389e-08
-3.59885e-07
-1.04544e-07
-1.09342e-07
2.17293e-07
-3.82235e-07
6.31796e-07
-7.6683e-07
9.44671e-07
-1.21189e-06
1.12538e-06
-1.66987e-06
1.17642e-06
-2.10005e-06
1.11491e-06
-2.46984e-06
9.63312e-07
-2.75472e-06
7.44134e-07
-2.93739e-06
4.77455e-07
-3.00686e-06
1.8072e-07
-2.95795e-06
-1.30015e-07
-2.79144e-06
-4.38166e-07
-2.51501e-06
-7.24714e-07
-2.14455e-06
-9.66887e-07
-1.70564e-06
-1.13813e-06
-1.23422e-06
-1.21009e-06
-7.75804e-07
-1.15723e-06
-3.82423e-07
-9.6401e-07
-1.07378e-07
-6.3493e-07
-2.11922e-07
-1.38525e-07
3.55818e-07
-4.80151e-07
9.73422e-07
-9.54267e-07
1.41879e-06
-1.4952e-06
1.66631e-06
-2.04548e-06
1.7267e-06
-2.55791e-06
1.62734e-06
-2.99592e-06
1.40133e-06
-3.33265e-06
1.08086e-06
-3.54934e-06
6.9415e-07
-3.63397e-06
2.65346e-07
-3.58043e-06
-1.83557e-07
-3.38871e-06
-6.29882e-07
-3.06607e-06
-1.04736e-06
-2.6289e-06
-1.40405e-06
-2.10502e-06
-1.66201e-06
-1.53524e-06
-1.77987e-06
-9.7341e-07
-1.71906e-06
-4.83973e-07
-1.45345e-06
-1.36723e-07
-9.8218e-07
-3.48645e-07
-1.67957e-07
5.23775e-07
-5.8114e-07
1.3866e-06
-1.1495e-06
1.98715e-06
-1.79115e-06
2.30796e-06
-2.43738e-06
2.37293e-06
-3.03425e-06
2.22421e-06
-3.54172e-06
1.9088e-06
-3.93141e-06
1.47055e-06
-4.18393e-06
9.46678e-07
-4.28667e-06
3.68081e-07
-4.23249e-06
-2.37739e-07
-4.01986e-06
-8.42513e-07
-3.65435e-06
-1.41287e-06
-3.15139e-06
-1.907e-06
-2.53977e-06
-2.27363e-06
-1.8648e-06
-2.45485e-06
-1.18975e-06
-2.39411e-06
-5.94145e-07
-2.04905e-06
-1.67779e-07
-1.40854e-06
-5.16424e-07
-2.01621e-07
7.25397e-07
-6.96153e-07
1.88114e-06
-1.37074e-06
2.66174e-06
-2.12436e-06
3.06157e-06
-2.87547e-06
3.12404e-06
-3.56308e-06
2.91183e-06
-4.14435e-06
2.49006e-06
-4.59047e-06
1.91667e-06
-4.88244e-06
1.23865e-06
-5.00762e-06
4.93263e-07
-4.95779e-06
-2.87572e-07
-4.72903e-06
-1.07127e-06
-4.32368e-06
-1.81822e-06
-3.75422e-06
-2.47646e-06
-3.04858e-06
-2.97927e-06
-2.25571e-06
-3.24772e-06
-1.44933e-06
-3.20048e-06
-7.27528e-07
-2.77085e-06
-2.05682e-07
-1.93039e-06
-7.22106e-07
-2.43371e-07
9.68768e-07
-8.35874e-07
2.47364e-06
-1.63513e-06
3.46099e-06
-2.51651e-06
3.94295e-06
-3.38379e-06
3.99132e-06
-4.16912e-06
3.69716e-06
-4.8282e-06
3.14914e-06
-5.33358e-06
2.42206e-06
-5.66829e-06
1.57335e-06
-5.82069e-06
6.4566e-07
-5.78158e-06
-3.26676e-07
-5.54376e-06
-1.30909e-06
-5.10435e-06
-2.25764e-06
-4.47e-06
-3.11081e-06
-3.66473e-06
-3.78453e-06
-2.73893e-06
-4.17352e-06
-1.77698e-06
-4.16243e-06
-8.99549e-07
-3.64829e-06
-2.55866e-07
-2.57407e-06
-9.77972e-07
-2.97142e-07
1.26591e-06
-1.01066e-06
3.18716e-06
-1.9578e-06
4.40814e-06
-2.9842e-06
4.96935e-06
-3.97718e-06
4.98429e-06
-4.86324e-06
4.58323e-06
-5.59932e-06
3.88521e-06
-6.16234e-06
2.98508e-06
-6.53991e-06
1.95092e-06
-6.72316e-06
8.28908e-07
-6.70251e-06
-3.47319e-07
-6.46666e-06
-1.54495e-06
-6.00508e-06
-2.71922e-06
-5.31469e-06
-3.8012e-06
-4.41065e-06
-4.68858e-06
-3.3402e-06
-5.24397e-06
-2.19648e-06
-5.30615e-06
-1.12643e-06
-4.71834e-06
-3.2442e-07
-3.37609e-06
-1.30239e-06
-3.67345e-07
1.63325e-06
-1.23066e-06
4.05047e-06
-2.35077e-06
5.52825e-06
-3.53581e-06
6.15438e-06
-4.65589e-06
6.10438e-06
-5.63514e-06
5.56248e-06
-6.43641e-06
4.68648e-06
-7.0457e-06
3.59436e-06
-7.45906e-06
2.36428e-06
-7.6731e-06
1.04295e-06
-7.67919e-06
-3.41226e-07
-7.46153e-06
-1.76261e-06
-6.99949e-06
-3.18126e-06
-6.27529e-06
-4.52539e-06
-5.28796e-06
-5.67591e-06
-4.07338e-06
-6.45854e-06
-2.72749e-06
-6.65204e-06
-1.42484e-06
-6.021e-06
-4.18532e-07
-4.38239e-06
-1.72092e-06
-4.59458e-07
2.09271e-06
-1.50586e-06
5.09688e-06
-2.82058e-06
6.84297e-06
-4.16589e-06
7.4997e-06
-5.39676e-06
7.33524e-06
-6.44162e-06
6.60734e-06
-7.27693e-06
5.52179e-06
-7.90448e-06
4.22191e-06
-8.33401e-06
2.79381e-06
-8.57132e-06
1.28026e-06
-8.61103e-06
-3.0152e-07
-8.43339e-06
-1.94025e-06
-8.00581e-06
-3.60884e-06
-7.29052e-06
-5.24068e-06
-6.26094e-06
-6.7055e-06
-4.9286e-06
-7.79088e-06
-3.37936e-06
-8.20128e-06
-1.81038e-06
-7.58998e-06
-5.46979e-07
-5.64579e-06
-2.2679e-06
-5.8106e-07
2.67377e-06
-1.84572e-06
6.36153e-06
-3.36387e-06
8.36113e-06
-4.84564e-06
8.98146e-06
-6.139e-06
8.62861e-06
-7.18922e-06
7.65756e-06
-7.99781e-06
6.33038e-06
-8.59105e-06
4.81515e-06
-8.99851e-06
3.20127e-06
-9.23954e-06
1.5213e-06
-9.31517e-06
-2.25896e-07
-9.20378e-06
-2.05163e-06
-8.86078e-06
-3.95184e-06
-8.2244e-06
-5.87707e-06
-7.23207e-06
-7.69782e-06
-5.85293e-06
-9.17002e-06
-4.13966e-06
-9.91455e-06
-2.29419e-06
-9.43544e-06
-7.20761e-07
-7.21922e-06
-2.98866e-06
-7.43854e-07
3.41763e-06
-2.25819e-06
7.87587e-06
-3.95902e-06
1.0062e-05
-5.50677e-06
1.05292e-05
-6.76284e-06
9.88467e-06
-7.71033e-06
8.60505e-06
-8.39138e-06
7.01143e-06
-8.86635e-06
5.29011e-06
-9.19011e-06
3.52503e-06
-9.39923e-06
1.73042e-06
-9.50465e-06
-1.20476e-07
-9.48676e-06
-2.06952e-06
-9.29231e-06
-4.14628e-06
-8.83562e-06
-6.33376e-06
-8.01031e-06
-8.52313e-06
-6.72218e-06
-1.04581e-05
-4.95526e-06
-1.16815e-05
-2.87616e-06
-1.15145e-05
-9.54105e-07
-9.14128e-06
-3.94277e-06
-9.67384e-07
4.38501e-06
-2.7463e-06
9.65478e-06
-4.5494e-06
1.18651e-05
-6.01423e-06
1.19941e-05
-7.05757e-06
1.0928e-05
-7.73228e-06
9.27976e-06
-8.13888e-06
7.41803e-06
-8.37899e-06
5.53023e-06
-8.53448e-06
3.68052e-06
-8.65956e-06
1.8555e-06
-8.77725e-06
-2.79312e-09
-8.87527e-06
-1.9715e-06
-8.89995e-06
-4.1216e-06
-8.7497e-06
-6.48401e-06
-8.27534e-06
-8.99749e-06
-7.30258e-06
-1.14309e-05
-5.70156e-06
-1.32825e-05
-3.53125e-06
-1.36848e-05
-1.26546e-06
-1.14071e-05
-5.20823e-06
-1.2834e-06
5.66841e-06
-3.29416e-06
1.16655e-05
-5.00596e-06
1.35769e-05
-6.11656e-06
1.31046e-05
-6.67331e-06
1.14848e-05
-6.83906e-06
9.44551e-06
-6.78574e-06
7.36472e-06
-6.65414e-06
5.39863e-06
-6.54562e-06
3.57199e-06
-6.52553e-06
1.83541e-06
-6.62721e-06
9.88894e-08
-6.8511e-06
-1.74761e-06
-7.15638e-06
-3.81632e-06
-7.44518e-06
-6.19521e-06
-7.54427e-06
-8.8984e-06
-7.20093e-06
-1.17742e-05
-6.1305e-06
-1.43529e-05
-4.17751e-06
-1.56378e-05
-1.67409e-06
-1.39105e-05
-6.88232e-06
-1.72901e-06
7.39743e-06
-3.81264e-06
1.37492e-05
-5.03636e-06
1.48006e-05
-5.35178e-06
1.34201e-05
-5.04728e-06
1.11803e-05
-4.42722e-06
8.82546e-06
-3.72642e-06
6.66392e-06
-3.10226e-06
4.77446e-06
-2.65271e-06
3.12245e-06
-2.43733e-06
1.62003e-06
-2.49158e-06
1.53137e-07
-2.83121e-06
-1.40798e-06
-3.44439e-06
-3.20315e-06
-4.26859e-06
-5.37101e-06
-5.15105e-06
-8.01595e-06
-5.80197e-06
-1.11233e-05
-5.77902e-06
-1.43759e-05
-4.59577e-06
-1.68211e-05
-2.17345e-06
-1.63328e-05
-9.05576e-06
-2.28601e-06
9.68344e-06
-3.96106e-06
1.54242e-05
-3.96922e-06
1.48087e-05
-2.8714e-06
1.23223e-05
-1.29653e-06
9.60538e-06
3.36011e-07
7.19292e-06
1.7875e-06
5.21243e-06
2.93881e-06
3.62315e-06
3.73605e-06
2.32521e-06
4.15213e-06
1.20394e-06
4.16414e-06
1.41126e-07
3.74383e-06
-9.8767e-07
2.86145e-06
-2.32076e-06
1.50808e-06
-4.01764e-06
-2.5292e-07
-6.25494e-06
-2.19549e-06
-9.18076e-06
-3.81238e-06
-1.2759e-05
-4.24648e-06
-1.6387e-05
-2.63422e-06
-1.79451e-05
-1.169e-05
-2.64592e-06
1.23294e-05
-2.64287e-06
1.54212e-05
-2.81221e-07
1.24471e-05
2.85865e-06
9.18239e-06
5.91074e-06
6.55329e-06
8.5222e-06
4.58146e-06
1.05875e-05
3.14709e-06
1.21095e-05
2.10115e-06
1.31245e-05
1.31025e-06
1.36626e-05
6.65821e-07
1.3728e-05
7.57346e-08
1.32888e-05
-5.48505e-07
1.22747e-05
-1.3066e-06
1.05853e-05
-2.32826e-06
8.12669e-06
-3.79632e-06
4.90675e-06
-5.96082e-06
1.24133e-06
-9.09356e-06
-1.88361e-06
-1.32621e-05
-2.55073e-06
-1.7278e-05
-1.42407e-05
-1.04771e-06
1.33771e-05
3.51724e-06
1.08562e-05
9.33691e-06
6.62741e-06
1.44075e-05
4.11183e-06
1.83628e-05
2.59797e-06
2.12953e-05
1.64897e-06
2.33938e-05
1.04855e-06
2.48359e-05
6.59078e-07
2.57548e-05
3.913e-07
2.62327e-05
1.87949e-07
2.62996e-05
8.87281e-09
2.59313e-05
-1.80207e-07
2.50424e-05
-4.17705e-07
2.34736e-05
-7.59451e-07
2.09791e-05
-1.30183e-06
1.72423e-05
-2.22409e-06
1.2009e-05
-3.86021e-06
5.54503e-06
-6.79809e-06
-7.99093e-08
-1.1653e-05
-1.43206e-05
1.33771e-05
2.42333e-05
3.08607e-05
3.49725e-05
3.75705e-05
3.92195e-05
4.0268e-05
4.09271e-05
4.13184e-05
4.15063e-05
4.15152e-05
4.1335e-05
4.09173e-05
4.01579e-05
3.8856e-05
3.66319e-05
3.27717e-05
2.59736e-05
1.43206e-05
)
;

boundaryField
{
    movingWall
    {
        type            calculated;
        value           uniform 0;
    }
    fixedWalls
    {
        type            calculated;
        value           uniform 0;
    }
    frontAndBack
    {
        type            empty;
        value           nonuniform 0();
    }
}


// ************************************************************************* //
