/*--------------------------------*- C++ -*----------------------------------*\
  =========                 |
  \\      /  F ield         | OpenFOAM: The Open Source CFD Toolbox
   \\    /   O peration     | Website:  https://openfoam.org
    \\  /    A nd           | Version:  6
     \\/     M anipulation  |
\*---------------------------------------------------------------------------*/
FoamFile
{
    version     2.0;
    format      ascii;
    class       volScalarField;
    location    "0.095";
    object      p;
}
// * * * * * * * * * * * * * * * * * * * * * * * * * * * * * * * * * * * * * //

dimensions      [0 2 -2 0 0 0 0];

internalField   nonuniform List<scalar> 
400
(
-6.553e-06
-0.00570602
-0.0127532
-0.0181101
-0.0200565
-0.0178375
-0.0113973
-0.00117699
0.0120379
0.0272202
0.0431782
0.0586285
0.072281
0.0829469
0.0896757
0.0919258
0.0897646
0.0840813
0.076808
0.0711176
0.00563036
-0.00023071
-0.00575177
-0.00942168
-0.0104239
-0.00823133
-0.00277165
0.00564218
0.0164184
0.0287599
0.041725
0.0542929
0.06544
0.0742339
0.0799441
0.0821709
0.0809919
0.0770406
0.0713207
0.0654918
0.0130842
0.00495482
-0.00101125
-0.0043757
-0.0051736
-0.00313511
0.00173804
0.00914943
0.0185926
0.0293961
0.0407631
0.0518205
0.0616832
0.0695328
0.0747082
0.0768097
0.0758279
0.072137
0.0659136
0.0578016
0.0197834
0.00855335
0.00114878
-0.00268188
-0.00368121
-0.00180946
0.00282397
0.00987785
0.01886
0.0291501
0.0400165
0.0506482
0.0602038
0.0678772
0.0729735
0.0750032
0.073822
0.0695764
0.0617811
0.0504771
0.0240695
0.00959047
0.000471319
-0.00404134
-0.00529935
-0.00346382
0.00124448
0.00841774
0.0175467
0.0280251
0.0391455
0.0501127
0.0600777
0.0681898
0.0736622
0.0758646
0.0744897
0.0694734
0.0597643
0.0450091
0.0247226
0.00696704
-0.00392952
-0.00912277
-0.0105185
-0.00846111
-0.00328407
0.00452581
0.0144228
0.0257914
0.0379209
0.0500006
0.0611363
0.0703887
0.0768299
0.0796401
0.0783127
0.0725657
0.0608168
0.0424276
0.0206762
-0.00040242
-0.0130367
-0.0187556
-0.0200173
-0.0173535
-0.0112185
-0.00218843
0.00914339
0.0221403
0.0360751
0.0501041
0.0632638
0.0744923
0.0826738
0.0867426
0.0859374
0.0797126
0.0659129
0.0436378
0.0108209
-0.0136749
-0.0279202
-0.0338537
-0.0345476
-0.0307534
-0.0230659
-0.0121613
0.0013167
0.0167125
0.0332864
0.0501631
0.0663031
0.0805002
0.0914081
0.0976486
0.0981214
0.0919212
0.0761814
0.0496757
-0.00614724
-0.0342081
-0.0498333
-0.0554802
-0.0549726
-0.0493511
-0.0393858
-0.0258651
-0.00947663
0.00912397
0.0292092
0.0498968
0.0700874
0.0884282
0.103308
0.112961
0.115828
0.110485
0.0930933
0.0619337
-0.0318668
-0.0636851
-0.0802845
-0.0848597
-0.0822324
-0.073849
-0.0607079
-0.0437211
-0.0236008
-0.000963198
0.0235273
0.049036
0.0744525
0.0983051
0.118705
0.13342
0.140285
0.137109
0.118661
0.0823962
-0.0685009
-0.104281
-0.121117
-0.123365
-0.117261
-0.104837
-0.0873867
-0.0659505
-0.0412244
-0.013718
0.0160514
0.04739
0.0792692
0.110175
0.137971
0.159905
0.173033
0.174058
0.155696
0.113959
-0.119079
-0.158927
-0.174609
-0.17247
-0.160844
-0.142597
-0.119388
-0.0923614
-0.0621215
-0.0289644
0.00686502
0.0449539
0.0845069
0.124115
0.161504
0.193415
0.215971
0.224339
0.208186
0.160939
-0.188189
-0.231755
-0.243588
-0.233628
-0.213371
-0.186811
-0.155992
-0.122074
-0.085426
-0.0459694
-0.00350179
0.042038
0.0903074
0.140247
0.189685
0.235007
0.271356
0.2919
0.281855
0.23
-0.28347
-0.328842
-0.331482
-0.307966
-0.274405
-0.236124
-0.195411
-0.153205
-0.109384
-0.063253
-0.013933
0.0393537
0.0970057
0.158673
0.222711
0.285568
0.341633
0.381776
0.385046
0.331971
-0.418779
-0.459354
-0.442062
-0.395525
-0.341887
-0.287491
-0.234327
-0.182582
-0.131201
-0.0785322
-0.0227434
0.0379319
0.104967
0.179189
0.260144
0.345187
0.428778
0.499861
0.529905
0.485405
-0.619899
-0.636692
-0.578483
-0.493995
-0.411095
-0.335514
-0.26759
-0.205718
-0.147203
-0.088993
-0.0280089
0.0387566
0.114172
0.200769
0.300194
0.41216
0.533071
0.651838
0.733146
0.722157
-0.934954
-0.878798
-0.741556
-0.597778
-0.474363
-0.37265
-0.288805
-0.217616
-0.153717
-0.0921528
-0.028361
0.0420572
0.12359
0.220978
0.339101
0.482209
0.651829
0.841122
1.01576
1.09672
-1.47415
-1.20846
-0.920466
-0.691142
-0.517344
-0.387634
-0.290088
-0.213274
-0.147963
-0.0869675
-0.024271
0.0457832
0.12924
0.233314
0.367268
0.542694
0.770937
1.05913
1.40535
1.72772
-2.53137
-1.63901
-1.04571
-0.710667
-0.495735
-0.352131
-0.254501
-0.183478
-0.125986
-0.0733401
-0.0189714
0.0430969
0.119489
0.218994
0.354959
0.54802
0.826185
1.23805
1.92097
2.91507
-4.34934
-2.04817
-0.973789
-0.563059
-0.358401
-0.240864
-0.170712
-0.124173
-0.0876439
-0.0534459
-0.016383
0.0280881
0.0851396
0.162308
0.272958
0.44241
0.717895
1.22572
2.41429
4.82991
)
;

boundaryField
{
    movingWall
    {
        type            zeroGradient;
    }
    fixedWalls
    {
        type            zeroGradient;
    }
    frontAndBack
    {
        type            empty;
    }
}


// ************************************************************************* //
