/*--------------------------------*- C++ -*----------------------------------*\
  =========                 |
  \\      /  F ield         | OpenFOAM: The Open Source CFD Toolbox
   \\    /   O peration     | Website:  https://openfoam.org
    \\  /    A nd           | Version:  6
     \\/     M anipulation  |
\*---------------------------------------------------------------------------*/
FoamFile
{
    version     2.0;
    format      ascii;
    class       surfaceScalarField;
    location    "0.095";
    object      phi;
}
// * * * * * * * * * * * * * * * * * * * * * * * * * * * * * * * * * * * * * //

dimensions      [0 3 -1 0 0 0 0];

internalField   nonuniform List<scalar> 
760
(
1.4067e-08
-1.40356e-08
-2.19561e-08
3.60234e-08
-1.12901e-07
9.09457e-08
-2.42405e-07
1.29503e-07
-3.90957e-07
1.48552e-07
-5.40129e-07
1.49171e-07
-6.74064e-07
1.33936e-07
-7.8006e-07
1.05996e-07
-8.48694e-07
6.8634e-08
-8.73877e-07
2.5183e-08
-8.52992e-07
-2.0885e-08
-7.87142e-07
-6.58491e-08
-6.81455e-07
-1.05687e-07
-5.45318e-07
-1.36137e-07
-3.92395e-07
-1.52923e-07
-2.40174e-07
-1.52221e-07
-1.08722e-07
-1.31452e-07
-1.83332e-08
-9.0389e-08
1.54616e-08
-3.37949e-08
1.54616e-08
-3.37854e-08
1.97497e-08
-1.78045e-07
1.80283e-07
-4.28228e-07
3.41128e-07
-7.54162e-07
4.55438e-07
-1.11687e-06
5.11259e-07
-1.47684e-06
5.0914e-07
-1.79842e-06
4.55517e-07
-2.05212e-06
3.59697e-07
-2.21573e-06
2.32241e-07
-2.27494e-06
8.43921e-08
-2.22387e-06
-7.19488e-08
-2.06562e-06
-2.24101e-07
-1.81269e-06
-3.58616e-07
-1.48719e-06
-4.61639e-07
-1.1203e-06
-5.1981e-07
-7.50617e-07
-5.21908e-07
-4.20638e-07
-4.61431e-07
-1.70917e-07
-3.40109e-07
-3.05334e-08
-1.74179e-07
-1.50718e-08
-9.10647e-08
1.10814e-07
-3.52299e-07
4.41517e-07
-7.54428e-07
7.43257e-07
-1.25161e-06
9.5262e-07
-1.79047e-06
1.05011e-06
-2.31759e-06
1.03627e-06
-2.78462e-06
9.22541e-07
-3.15123e-06
7.26315e-07
-3.38695e-06
4.67958e-07
-3.47212e-06
1.69561e-07
-3.39873e-06
-1.45341e-07
-3.17108e-06
-4.51744e-07
-2.80637e-06
-7.2333e-07
-2.33473e-06
-9.33278e-07
-1.79847e-06
-1.05607e-06
-1.2497e-06
-1.07067e-06
-7.45944e-07
-9.65189e-07
-3.43165e-07
-7.42889e-07
-8.64702e-08
-4.30874e-07
-1.01542e-07
-1.4336e-07
2.54174e-07
-5.1883e-07
8.16986e-07
-1.06805e-06
1.29248e-06
-1.7256e-06
1.61016e-06
-2.42352e-06
1.74804e-06
-3.09696e-06
1.70971e-06
-3.68837e-06
1.51395e-06
-4.15026e-06
1.18821e-06
-4.44685e-06
7.64547e-07
-4.55504e-06
2.77751e-07
-4.46522e-06
-2.35164e-07
-4.18203e-06
-7.34936e-07
-3.72506e-06
-1.18029e-06
-3.12921e-06
-1.52913e-06
-2.44406e-06
-1.74123e-06
-1.73179e-06
-1.78294e-06
-1.0629e-06
-1.63407e-06
-5.09661e-07
-1.29613e-06
-1.37861e-07
-8.02674e-07
-2.39403e-07
-1.9134e-07
4.45514e-07
-6.772e-07
1.30285e-06
-1.37002e-06
1.98531e-06
-2.18248e-06
2.42262e-06
-3.03108e-06
2.59664e-06
-3.84018e-06
2.51881e-06
-4.54493e-06
2.2187e-06
-5.09297e-06
1.73625e-06
-5.44525e-06
1.11682e-06
-5.57649e-06
4.08989e-07
-5.47569e-06
-3.35965e-07
-5.14689e-06
-1.06374e-06
-4.61017e-06
-1.71701e-06
-3.90262e-06
-2.23669e-06
-3.07859e-06
-2.56526e-06
-2.20863e-06
-2.6529e-06
-1.37622e-06
-2.46647e-06
-6.71993e-07
-2.00036e-06
-1.85952e-07
-1.28872e-06
-4.25354e-07
-2.37555e-07
6.8307e-07
-8.32285e-07
1.89758e-06
-1.66734e-06
2.82036e-06
-2.63196e-06
3.38724e-06
-3.62623e-06
3.5909e-06
-4.56412e-06
3.4567e-06
-5.37492e-06
3.0295e-06
-6.00327e-06
2.36459e-06
-6.40858e-06
1.52213e-06
-6.56446e-06
5.64871e-07
-6.45862e-06
-4.41798e-07
-6.09354e-06
-1.42882e-06
-5.48786e-06
-2.32269e-06
-4.6784e-06
-3.04615e-06
-3.72198e-06
-3.52168e-06
-2.69616e-06
-3.67872e-06
-1.6977e-06
-3.46493e-06
-8.37866e-07
-2.8602e-06
-2.34248e-07
-1.89233e-06
-6.59602e-07
-2.84539e-07
9.67608e-07
-9.8968e-07
2.60272e-06
-1.96751e-06
3.79819e-06
-3.08209e-06
4.50183e-06
-4.21653e-06
4.72533e-06
-5.27527e-06
4.51545e-06
-6.18359e-06
3.93783e-06
-6.88539e-06
3.06639e-06
-7.34057e-06
1.97731e-06
-7.52294e-06
7.4724e-07
-7.41912e-06
-5.45618e-07
-7.02897e-06
-1.81897e-06
-6.36756e-06
-2.9841e-06
-5.46853e-06
-3.94518e-06
-4.38812e-06
-4.60209e-06
-3.20873e-06
-4.85812e-06
-2.04007e-06
-4.63358e-06
-1.01617e-06
-3.8841e-06
-2.86456e-07
-2.62205e-06
-9.46059e-07
-3.34571e-07
1.30218e-06
-1.15447e-06
3.42262e-06
-2.2764e-06
4.92012e-06
-3.53676e-06
5.76219e-06
-4.80151e-06
5.99008e-06
-5.96743e-06
5.68137e-06
-6.95877e-06
4.92916e-06
-7.72198e-06
3.8296e-06
-8.22036e-06
2.47569e-06
-8.42978e-06
9.56664e-07
-8.33634e-06
-6.39058e-07
-7.93629e-06
-2.21903e-06
-7.23854e-06
-3.68184e-06
-6.26969e-06
-4.91404e-06
-5.08091e-06
-5.79086e-06
-3.75549e-06
-6.18354e-06
-2.4142e-06
-5.97487e-06
-1.21543e-06
-5.08287e-06
-3.46176e-07
-3.4913e-06
-1.29223e-06
-3.89863e-07
1.69204e-06
-1.3312e-06
4.36396e-06
-2.59764e-06
6.18655e-06
-3.99429e-06
7.15884e-06
-5.3706e-06
7.36639e-06
-6.61915e-06
6.92991e-06
-7.66799e-06
5.97801e-06
-8.47105e-06
4.63266e-06
-8.99913e-06
3.00377e-06
-9.23301e-06
1.19054e-06
-9.15938e-06
-7.12689e-07
-8.77006e-06
-2.60834e-06
-8.06487e-06
-4.38704e-06
-7.05829e-06
-5.92062e-06
-5.78992e-06
-7.05923e-06
-4.33719e-06
-7.63627e-06
-2.82733e-06
-7.48473e-06
-1.44336e-06
-6.46685e-06
-4.17007e-07
-4.51765e-06
-1.70924e-06
-4.53177e-07
2.14522e-06
-1.52471e-06
5.43549e-06
-2.93274e-06
7.59458e-06
-4.4464e-06
8.67251e-06
-5.9008e-06
8.82079e-06
-7.19041e-06
8.21953e-06
-8.25452e-06
7.04211e-06
-9.06148e-06
5.43962e-06
-9.59526e-06
3.53755e-06
-9.84545e-06
1.44073e-06
-9.80127e-06
-7.56868e-07
-9.44973e-06
-2.95987e-06
-8.77845e-06
-5.05832e-06
-7.78377e-06
-6.9153e-06
-6.48473e-06
-8.35826e-06
-4.94246e-06
-9.17854e-06
-3.28159e-06
-9.14561e-06
-1.70689e-06
-8.04154e-06
-5.03038e-07
-5.72151e-06
-2.21228e-06
-5.28937e-07
2.67415e-06
-1.74161e-06
6.64816e-06
-3.28142e-06
9.13439e-06
-4.87642e-06
1.02675e-05
-6.3529e-06
1.02973e-05
-7.61752e-06
9.48414e-06
-8.63154e-06
8.05614e-06
-9.38706e-06
6.19514e-06
-9.88826e-06
4.03875e-06
-1.01384e-05
1.69088e-06
-1.0132e-05
-7.6328e-07
-9.85167e-06
-3.2402e-06
-9.27029e-06
-5.63969e-06
-8.35957e-06
-7.82603e-06
-7.10695e-06
-9.61089e-06
-5.54214e-06
-1.07433e-05
-3.77154e-06
-1.09162e-05
-2.01255e-06
-9.80053e-06
-6.09728e-07
-7.12433e-06
-2.82201e-06
-6.25084e-07
3.29924e-06
-1.99214e-06
8.01522e-06
-3.64073e-06
1.0783e-05
-5.25491e-06
1.18817e-05
-6.66447e-06
1.17068e-05
-7.8048e-06
1.06245e-05
-8.67405e-06
8.92539e-06
-9.29918e-06
6.82028e-06
-9.71227e-06
4.45183e-06
-9.93536e-06
1.91396e-06
-9.97154e-06
-7.27098e-07
-9.8007e-06
-3.41104e-06
-9.38004e-06
-6.06036e-06
-8.65129e-06
-8.55478e-06
-7.55837e-06
-1.07038e-05
-6.08001e-06
-1.22217e-05
-4.27951e-06
-1.27167e-05
-2.36622e-06
-1.17138e-05
-7.45381e-07
-8.74517e-06
-3.56739e-06
-7.5608e-07
4.05532e-06
-2.29143e-06
9.55056e-06
-4.00035e-06
1.24919e-05
-5.529e-06
1.34103e-05
-6.73589e-06
1.29137e-05
-7.6106e-06
1.14992e-05
-8.20684e-06
9.52163e-06
-8.59782e-06
7.21125e-06
-8.84974e-06
4.70376e-06
-9.00716e-06
2.07138e-06
-9.08483e-06
-6.4943e-07
-9.06293e-06
-3.43294e-06
-8.88514e-06
-6.23815e-06
-8.46176e-06
-8.97817e-06
-7.68374e-06
-1.14818e-05
-6.4568e-06
-1.34487e-05
-4.76553e-06
-1.4408e-05
-2.7713e-06
-1.37081e-05
-9.23452e-07
-1.0593e-05
-4.49084e-06
-9.47306e-07
5.00262e-06
-2.65697e-06
1.12602e-05
-4.32734e-06
1.41623e-05
-5.59795e-06
1.46809e-05
-6.40357e-06
1.37194e-05
-6.82378e-06
1.19194e-05
-6.98743e-06
9.68528e-06
-7.02143e-06
7.24525e-06
-7.0272e-06
4.70953e-06
-7.07139e-06
2.11557e-06
-7.18164e-06
-5.39176e-07
-7.34277e-06
-3.27181e-06
-7.49176e-06
-6.08916e-06
-7.51374e-06
-8.95618e-06
-7.24579e-06
-1.17498e-05
-6.50258e-06
-1.41919e-05
-5.14585e-06
-1.57647e-05
-3.22094e-06
-1.5633e-05
-1.16541e-06
-1.26485e-05
-5.65625e-06
-1.23859e-06
6.24122e-06
-3.09178e-06
1.31134e-05
-4.52498e-06
1.55955e-05
-5.26098e-06
1.54169e-05
-5.39108e-06
1.38495e-05
-5.12657e-06
1.16549e-05
-4.6833e-06
9.24201e-06
-4.2375e-06
6.79945e-06
-3.91611e-06
4.38814e-06
-3.79967e-06
1.99912e-06
-3.92596e-06
-4.12888e-07
-4.28908e-06
-2.90869e-06
-4.8319e-06
-5.54634e-06
-5.43258e-06
-8.35549e-06
-5.89074e-06
-1.12916e-05
-5.92943e-06
-1.41532e-05
-5.24693e-06
-1.64472e-05
-3.67255e-06
-1.72073e-05
-1.50026e-06
-1.48208e-05
-7.15651e-06
-1.67273e-06
7.91394e-06
-3.51985e-06
1.49606e-05
-4.33099e-06
1.64066e-05
-4.11391e-06
1.51999e-05
-3.22782e-06
1.29634e-05
-2.04298e-06
1.047e-05
-8.47745e-07
8.04678e-06
1.60227e-07
5.79148e-06
8.55034e-07
3.69333e-06
1.1611e-06
1.69305e-06
1.03916e-06
-2.90949e-07
4.82532e-07
-2.35206e-06
-4.74672e-07
-4.58914e-06
-1.73566e-06
-7.09451e-06
-3.10571e-06
-9.92156e-06
-4.25405e-06
-1.30048e-05
-4.70932e-06
-1.59919e-05
-3.97187e-06
-1.79448e-05
-1.94273e-06
-1.685e-05
-9.09924e-06
-2.22357e-06
1.01375e-05
-3.59232e-06
1.63293e-05
-3.08962e-06
1.59039e-05
-1.36448e-06
1.34747e-05
8.67135e-07
1.07317e-05
3.11576e-06
8.22141e-06
5.09054e-06
6.072e-06
6.63449e-06
4.24753e-06
7.66735e-06
2.66047e-06
8.1465e-06
1.2139e-06
8.04513e-06
-1.89574e-07
7.34427e-06
-1.6512e-06
6.03844e-06
-3.28331e-06
4.15897e-06
-5.21503e-06
1.82333e-06
-7.58592e-06
-6.827e-07
-1.04988e-05
-2.80341e-06
-1.38712e-05
-3.66258e-06
-1.70856e-05
-2.40287e-06
-1.81097e-05
-1.15021e-05
-2.54722e-06
1.26847e-05
-2.18301e-06
1.59651e-05
7.09365e-07
1.30115e-05
4.45449e-06
9.72959e-06
8.11069e-06
7.07554e-06
1.1271e-05
5.0611e-06
1.37911e-05
3.55187e-06
1.56442e-05
2.39449e-06
1.68438e-05
1.46081e-06
1.74055e-05
6.52205e-07
1.7328e-05
-1.12024e-07
1.65854e-05
-9.08637e-07
1.51274e-05
-1.82528e-06
1.28905e-05
-2.97809e-06
9.83624e-06
-4.53171e-06
6.04418e-06
-6.70676e-06
1.90218e-06
-9.72921e-06
-1.55882e-06
-1.36246e-05
-2.42963e-06
-1.72389e-05
-1.39317e-05
-8.4398e-07
1.35287e-05
4.06485e-06
1.10563e-05
1.02906e-05
6.78583e-06
1.57842e-05
4.23598e-06
2.01439e-05
2.71577e-06
2.34386e-05
1.76645e-06
2.5836e-05
1.15443e-06
2.74924e-05
7.38116e-07
2.8522e-05
4.31157e-07
2.89934e-05
1.80875e-07
2.89298e-05
-4.84882e-08
2.83088e-05
-2.87574e-07
2.70555e-05
-5.72038e-07
2.50332e-05
-9.55753e-07
2.20343e-05
-1.5328e-06
1.78019e-05
-2.47435e-06
1.2161e-05
-4.08834e-06
5.45721e-06
-6.92083e-06
-1.95077e-07
-1.15866e-05
-1.41268e-05
1.35287e-05
2.4585e-05
3.13708e-05
3.56068e-05
3.83226e-05
4.0089e-05
4.12434e-05
4.19815e-05
4.24127e-05
4.25936e-05
4.25451e-05
4.22575e-05
4.16855e-05
4.07297e-05
3.91969e-05
3.67226e-05
3.26342e-05
2.57134e-05
1.41268e-05
)
;

boundaryField
{
    movingWall
    {
        type            calculated;
        value           uniform 0;
    }
    fixedWalls
    {
        type            calculated;
        value           uniform 0;
    }
    frontAndBack
    {
        type            empty;
        value           nonuniform 0();
    }
}


// ************************************************************************* //
