/*--------------------------------*- C++ -*----------------------------------*\
  =========                 |
  \\      /  F ield         | OpenFOAM: The Open Source CFD Toolbox
   \\    /   O peration     | Website:  https://openfoam.org
    \\  /    A nd           | Version:  6
     \\/     M anipulation  |
\*---------------------------------------------------------------------------*/
FoamFile
{
    version     2.0;
    format      ascii;
    class       volVectorField;
    location    "0.095";
    object      U;
}
// * * * * * * * * * * * * * * * * * * * * * * * * * * * * * * * * * * * * * //

dimensions      [0 1 -1 0 0 0 0];

internalField   nonuniform List<vector> 
400
(
(0.000245695 -0.000242242 0)
(0.000133812 0.000116736 0)
(-0.00116395 0.00056429 0)
(-0.00343809 0.000880145 0)
(-0.00629582 0.00103836 0)
(-0.00934524 0.00105367 0)
(-0.0122379 0.000950381 0)
(-0.0146854 0.000754543 0)
(-0.0164656 0.000490998 0)
(-0.0174226 0.000183574 0)
(-0.0174684 -0.00014346 0)
(-0.0165868 -0.000463933 0)
(-0.0148394 -0.000748851 0)
(-0.0123713 -0.000966403 0)
(-0.00941439 -0.00108319 0)
(-0.0062848 -0.00106734 0)
(-0.0033666 -0.000894537 0)
(-0.00107886 -0.000557505 0)
(0.000186934 -9.63839e-05 0)
(0.000259858 0.000254595 0)
(-8.34257e-05 -0.000160916 0)
(-0.00159813 0.00163104 0)
(-0.00561811 0.003577 0)
(-0.011562 0.00497391 0)
(-0.0186374 0.00567112 0)
(-0.0260419 0.00568669 0)
(-0.0330121 0.0051055 0)
(-0.0388877 0.00404089 0)
(-0.0431473 0.00261591 0)
(-0.045423 0.000958353 0)
(-0.0455107 -0.000797714 0)
(-0.0433803 -0.00250901 0)
(-0.0391863 -0.00402198 0)
(-0.0332758 -0.00517603 0)
(-0.0261869 -0.00581306 0)
(-0.0186301 -0.00579606 0)
(-0.0114342 -0.00503999 0)
(-0.00545404 -0.00355633 0)
(-0.00148636 -0.00155055 0)
(-4.98853e-05 0.000218031 0)
(-0.000529454 0.00107939 0)
(-0.00367055 0.00566132 0)
(-0.0104488 0.0100881 0)
(-0.0197261 0.0132255 0)
(-0.0303552 0.0147402 0)
(-0.0412633 0.0146327 0)
(-0.0514219 0.0130719 0)
(-0.0599311 0.0103137 0)
(-0.0660763 0.00665501 0)
(-0.0693519 0.00241601 0)
(-0.0694783 -0.002063 0)
(-0.0664155 -0.00641986 0)
(-0.0603767 -0.0102723 0)
(-0.0518367 -0.0132291 0)
(-0.0415275 -0.0149172 0)
(-0.0304106 -0.0150279 0)
(-0.0196009 -0.0133891 0)
(-0.0102479 -0.0100609 0)
(-0.00351891 -0.00549122 0)
(-0.000480262 -0.000942355 0)
(-0.000925233 0.00343603 0)
(-0.00562841 0.0120602 0)
(-0.0151091 0.0196582 0)
(-0.0275667 0.0248607 0)
(-0.0414596 0.0272238 0)
(-0.0554744 0.0267686 0)
(-0.0683827 0.0237823 0)
(-0.0791212 0.018702 0)
(-0.0868504 0.0120429 0)
(-0.0909779 0.00436624 0)
(-0.0911731 -0.00372943 0)
(-0.0873831 -0.0116085 0)
(-0.0798476 -0.0186032 0)
(-0.0691115 -0.0240347 0)
(-0.0560263 -0.0272585 0)
(-0.041727 -0.0277436 0)
(-0.0275536 -0.0251882 0)
(-0.0149322 -0.0196618 0)
(-0.00545679 -0.0117963 0)
(-0.000862203 -0.00319385 0)
(-0.00127461 0.0067919 0)
(-0.00746041 0.0206879 0)
(-0.0195805 0.0320964 0)
(-0.0351359 0.0395876 0)
(-0.0521532 0.0427283 0)
(-0.0690761 0.0416424 0)
(-0.0845056 0.0367933 0)
(-0.0972599 0.0288415 0)
(-0.106421 0.0185533 0)
(-0.111345 0.00675817 0)
(-0.111665 -0.00566281 0)
(-0.107309 -0.0177756 0)
(-0.0985131 -0.028598 0)
(-0.0858447 -0.0371255 0)
(-0.0702207 -0.0423941 0)
(-0.0529035 -0.0435895 0)
(-0.0354375 -0.0402047 0)
(-0.0195457 -0.0322296 0)
(-0.00731197 -0.0203703 0)
(-0.00120373 -0.00643374 0)
(-0.00160439 0.011082 0)
(-0.00924083 0.0314938 0)
(-0.0239784 0.0473772 0)
(-0.0425962 0.057369 0)
(-0.0626608 0.0611795 0)
(-0.0823674 0.0591445 0)
(-0.100167 0.0519833 0)
(-0.114796 0.0406328 0)
(-0.125296 0.0261412 0)
(-0.131002 0.00962069 0)
(-0.131526 -0.00775906 0)
(-0.126764 -0.0247608 0)
(-0.116919 -0.040075 0)
(-0.102537 -0.0523431 0)
(-0.0845476 -0.0602287 0)
(-0.0642998 -0.0625524 0)
(-0.0435288 -0.0584946 0)
(-0.0242805 -0.0478386 0)
(-0.00919427 -0.0312393 0)
(-0.0015394 -0.0106257 0)
(-0.00194037 0.0162963 0)
(-0.0110534 0.0444816 0)
(-0.0284383 0.0655041 0)
(-0.0501083 0.0781778 0)
(-0.0731422 0.0825034 0)
(-0.0954905 0.079162 0)
(-0.115484 0.0692286 0)
(-0.131822 0.0539782 0)
(-0.143553 0.0347685 0)
(-0.150024 0.0129966 0)
(-0.150841 -0.00989278 0)
(-0.145864 -0.0323759 0)
(-0.135229 -0.0528227 0)
(-0.119404 -0.0695027 0)
(-0.0992705 -0.080652 0)
(-0.0762067 -0.0846263 0)
(-0.0521083 -0.0801498 0)
(-0.0293599 -0.0666323 0)
(-0.0112305 -0.0445247 0)
(-0.00190509 -0.0158102 0)
(-0.00230576 0.0224733 0)
(-0.0129764 0.059712 0)
(-0.0330813 0.0865017 0)
(-0.0577827 0.101962 0)
(-0.0836407 0.106564 0)
(-0.108383 0.101499 0)
(-0.130272 0.0883194 0)
(-0.148038 0.0687068 0)
(-0.1608 0.0443502 0)
(-0.167968 0.016917 0)
(-0.169169 -0.0119103 0)
(-0.16422 -0.0403655 0)
(-0.153156 -0.0665307 0)
(-0.136302 -0.0883054 0)
(-0.1144 -0.103449 0)
(-0.088768 -0.109736 0)
(-0.061395 -0.105254 0)
(-0.0349938 -0.0888127 0)
(-0.013547 -0.0604491 0)
(-0.00233608 -0.0221018 0)
(-0.00272431 0.0296958 0)
(-0.0150868 0.077298 0)
(-0.0380076 0.110397 0)
(-0.0656589 0.128602 0)
(-0.0940477 0.133098 0)
(-0.120728 0.125799 0)
(-0.143988 0.10888 0)
(-0.162688 0.0845035 0)
(-0.176113 0.0547002 0)
(-0.183807 0.0213707 0)
(-0.185458 -0.0136322 0)
(-0.180848 -0.0483787 0)
(-0.16987 -0.0807327 0)
(-0.152624 -0.108258 0)
(-0.129597 -0.128206 0)
(-0.101903 -0.137652 0)
(-0.071496 -0.133818 0)
(-0.0413576 -0.114609 0)
(-0.0162692 -0.0793288 0)
(-0.00287012 -0.0296869 0)
(-0.00322818 0.038094 0)
(-0.0174782 0.0973963 0)
(-0.0433104 0.13718 0)
(-0.0736978 0.157837 0)
(-0.104068 0.161616 0)
(-0.131902 0.151434 0)
(-0.155658 0.130262 0)
(-0.174478 0.100817 0)
(-0.187942 0.0654611 0)
(-0.195826 0.0262615 0)
(-0.197939 -0.0148635 0)
(-0.194042 -0.0559429 0)
(-0.183855 -0.0947409 0)
(-0.167165 -0.12857 0)
(-0.144046 -0.154186 0)
(-0.115208 -0.167854 0)
(-0.0823537 -0.165668 0)
(-0.0485829 -0.144207 0)
(-0.0195338 -0.101553 0)
(-0.00355507 -0.0388276 0)
(-0.00387226 0.0478662 0)
(-0.0202934 0.120206 0)
(-0.0490986 0.166746 0)
(-0.0817682 0.189155 0)
(-0.113162 0.191265 0)
(-0.140874 0.177365 0)
(-0.163762 0.15142 0)
(-0.181456 0.116756 0)
(-0.193994 0.0760267 0)
(-0.201504 0.0313567 0)
(-0.203989 -0.0154164 0)
(-0.201226 -0.0624517 0)
(-0.192746 -0.10759 0)
(-0.177933 -0.148047 0)
(-0.156278 -0.180169 0)
(-0.127816 -0.19935 0)
(-0.0936639 -0.200275 0)
(-0.0567424 -0.177643 0)
(-0.0235104 -0.127556 0)
(-0.00446263 -0.0498795 0)
(-0.00475969 0.0593294 0)
(-0.0237744 0.145978 0)
(-0.0555147 0.198807 0)
(-0.0895937 0.221636 0)
(-0.120424 0.220651 0)
(-0.146052 0.201981 0)
(-0.166069 0.17078 0)
(-0.180856 0.130994 0)
(-0.191093 0.085469 0)
(-0.197382 0.0362325 0)
(-0.200006 -0.0151479 0)
(-0.198806 -0.0671759 0)
(-0.193134 -0.118007 0)
(-0.181925 -0.165001 0)
(-0.163923 -0.20429 0)
(-0.13817 -0.230449 0)
(-0.104728 -0.236514 0)
(-0.0658064 -0.214625 0)
(-0.0284319 -0.157775 0)
(-0.00571264 -0.0633339 0)
(-0.00608709 0.0730221 0)
(-0.0283286 0.175011 0)
(-0.0627072 0.232727 0)
(-0.0965885 0.253702 0)
(-0.124322 0.247595 0)
(-0.144986 0.222913 0)
(-0.159365 0.186123 0)
(-0.168885 0.141699 0)
(-0.175033 0.0924947 0)
(-0.17897 0.0402336 0)
(-0.18132 -0.0140058 0)
(-0.182051 -0.0693103 0)
(-0.1804 -0.124429 0)
(-0.17487 -0.177196 0)
(-0.163375 -0.223875 0)
(-0.143672 -0.258474 0)
(-0.114173 -0.272307 0)
(-0.0755241 -0.254242 0)
(-0.0346266 -0.192554 0)
(-0.00751487 -0.0799031 0)
(-0.0082179 0.0898835 0)
(-0.034589 0.207585 0)
(-0.0706541 0.267185 0)
(-0.101432 0.282714 0)
(-0.122153 0.268825 0)
(-0.133847 0.236864 0)
(-0.139045 0.194534 0)
(-0.14046 0.146553 0)
(-0.140441 0.0954808 0)
(-0.140702 0.042479 0)
(-0.142202 -0.0120767 0)
(-0.145088 -0.0680716 0)
(-0.148601 -0.12512 0)
(-0.150967 -0.181918 0)
(-0.149361 -0.23537 0)
(-0.14012 -0.279477 0)
(-0.119413 -0.304135 0)
(-0.0851118 -0.294448 0)
(-0.0425088 -0.231926 0)
(-0.0102302 -0.100658 0)
(-0.011761 0.111511 0)
(-0.0433335 0.243662 0)
(-0.0785493 0.299503 0)
(-0.101066 0.304379 0)
(-0.108977 0.279654 0)
(-0.106542 0.239574 0)
(-0.0985092 0.192555 0)
(-0.0888888 0.142977 0)
(-0.0807146 0.0926707 0)
(-0.0760444 0.0419678 0)
(-0.0760529 -0.00961061 0)
(-0.0810776 -0.0628624 0)
(-0.0905373 -0.118445 0)
(-0.10271 -0.176265 0)
(-0.114428 -0.234508 0)
(-0.120855 -0.288091 0)
(-0.115631 -0.32647 0)
(-0.0924634 -0.331226 0)
(-0.0523448 -0.27506 0)
(-0.0144041 -0.127185 0)
(-0.017466 0.140544 0)
(-0.0547428 0.281996 0)
(-0.0830067 0.324366 0)
(-0.0884916 0.311948 0)
(-0.0757068 0.273845 0)
(-0.0533846 0.22615 0)
(-0.0284349 0.176726 0)
(-0.00564327 0.128689 0)
(0.0118616 0.0826252 0)
(0.0221474 0.037842 0)
(0.0241088 -0.00699047 0)
(0.0172785 -0.0534997 0)
(0.00186461 -0.103344 0)
(-0.0209545 -0.157802 0)
(-0.048454 -0.216921 0)
(-0.0755494 -0.277769 0)
(-0.0939194 -0.33125 0)
(-0.0922466 -0.357282 0)
(-0.0632017 -0.319086 0)
(-0.0205166 -0.1618 0)
(-0.0251942 0.181523 0)
(-0.0655457 0.31785 0)
(-0.0734888 0.331222 0)
(-0.0484151 0.295063 0)
(-0.00608055 0.243793 0)
(0.0405264 0.191948 0)
(0.0837784 0.144653 0)
(0.119508 0.102657 0)
(0.145562 0.0649342 0)
(0.160847 0.0298149 0)
(0.164738 -0.00461806 0)
(0.156786 -0.0404546 0)
(0.136688 -0.0799723 0)
(0.104545 -0.125571 0)
(0.0615483 -0.179342 0)
(0.0112894 -0.241635 0)
(-0.0381699 -0.307544 0)
(-0.0718213 -0.359974 0)
(-0.0697438 -0.356639 0)
(-0.0275962 -0.208099 0)
(-0.0289676 0.238662 0)
(-0.0601769 0.336155 0)
(-0.0220839 0.300591 0)
(0.0502619 0.239963 0)
(0.127203 0.182708 0)
(0.19648 0.135138 0)
(0.253646 0.0971688 0)
(0.297423 0.0666681 0)
(0.327896 0.0412375 0)
(0.345482 0.0187348 0)
(0.350386 -0.0027629 0)
(0.342356 -0.025166 0)
(0.32061 -0.0506334 0)
(0.283907 -0.081856 0)
(0.230987 -0.122237 0)
(0.161753 -0.175469 0)
(0.0795681 -0.243292 0)
(-0.00336066 -0.319213 0)
(-0.0538759 -0.36894 0)
(-0.0276601 -0.266969 0)
(0.00960812 0.280856 0)
(0.021234 0.294811 0)
(0.13881 0.210907 0)
(0.264182 0.143392 0)
(0.364136 0.0971179 0)
(0.440036 0.0657267 0)
(0.496296 0.0441979 0)
(0.536327 0.0288581 0)
(0.562826 0.0171861 0)
(0.577645 0.00748933 0)
(0.581716 -0.001473 0)
(0.575063 -0.0108101 0)
(0.556738 -0.0218029 0)
(0.524649 -0.036286 0)
(0.475389 -0.0572055 0)
(0.404231 -0.0893163 0)
(0.304807 -0.139649 0)
(0.173053 -0.216268 0)
(0.0427289 -0.311351 0)
(0.0201218 -0.298855 0)
(0.300971 0.145469 0)
(0.397767 0.127059 0)
(0.557515 0.0759171 0)
(0.674464 0.0436753 0)
(0.743862 0.0255796 0)
(0.787054 0.0152725 0)
(0.815318 0.00924706 0)
(0.833739 0.0055404 0)
(0.845139 0.00305198 0)
(0.85111 0.00116735 0)
(0.852406 -0.000488933 0)
(0.849139 -0.00221196 0)
(0.840785 -0.00434328 0)
(0.825966 -0.00743525 0)
(0.801957 -0.0125429 0)
(0.763558 -0.0217659 0)
(0.699031 -0.0392237 0)
(0.583943 -0.072459 0)
(0.417315 -0.127341 0)
(0.310264 -0.148799 0)
)
;

boundaryField
{
    movingWall
    {
        type            fixedValue;
        value           uniform (1 0 0);
    }
    fixedWalls
    {
        type            noSlip;
    }
    frontAndBack
    {
        type            empty;
    }
}


// ************************************************************************* //
