/*--------------------------------*- C++ -*----------------------------------*\
  =========                 |
  \\      /  F ield         | OpenFOAM: The Open Source CFD Toolbox
   \\    /   O peration     | Website:  https://openfoam.org
    \\  /    A nd           | Version:  6
     \\/     M anipulation  |
\*---------------------------------------------------------------------------*/
FoamFile
{
    version     2.0;
    format      ascii;
    class       surfaceScalarField;
    location    "0.015";
    object      phi;
}
// * * * * * * * * * * * * * * * * * * * * * * * * * * * * * * * * * * * * * //

dimensions      [0 3 -1 0 0 0 0];

internalField   nonuniform List<scalar> 
760
(
1.48066e-08
-1.48052e-08
-2.062e-08
3.54273e-08
-1.12335e-07
9.17142e-08
-2.44197e-07
1.31862e-07
-3.96115e-07
1.51918e-07
-5.48704e-07
1.52589e-07
-6.85186e-07
1.36481e-07
-7.92269e-07
1.07084e-07
-8.60432e-07
6.8162e-08
-8.83942e-07
2.35105e-08
-8.6084e-07
-2.3102e-08
-7.92937e-07
-6.79031e-08
-6.85869e-07
-1.07069e-07
-5.49158e-07
-1.36711e-07
-3.96192e-07
-1.52965e-07
-2.43916e-07
-1.52277e-07
-1.11877e-07
-1.32039e-07
-2.02397e-08
-9.1637e-08
1.49492e-08
-3.51886e-08
1.49494e-08
-3.27203e-08
1.79147e-08
-1.76948e-07
1.79654e-07
-4.29859e-07
3.44626e-07
-7.61408e-07
4.6341e-07
-1.13147e-06
5.21983e-07
-1.49874e-06
5.19862e-07
-1.82584e-06
4.63575e-07
-2.08214e-06
3.63386e-07
-2.24521e-06
2.31234e-07
-2.30138e-06
7.96805e-08
-2.24597e-06
-7.85109e-08
-2.08339e-06
-2.30487e-07
-1.82713e-06
-3.63331e-07
-1.49962e-06
-4.64218e-07
-1.13166e-06
-5.2093e-07
-7.60915e-07
-5.23018e-07
-4.29e-07
-4.63954e-07
-1.76181e-07
-3.44457e-07
-3.23797e-08
-1.7899e-07
-1.74303e-08
-9.00568e-08
1.07971e-07
-3.52252e-07
4.41849e-07
-7.59197e-07
7.51571e-07
-1.26488e-06
9.69096e-07
-1.81421e-06
1.07131e-06
-2.35136e-06
1.05701e-06
-2.82572e-06
9.37939e-07
-3.19562e-06
7.33282e-07
-3.43033e-06
4.65944e-07
-3.51107e-06
1.60427e-07
-3.43143e-06
-1.58157e-07
-3.19746e-06
-4.64459e-07
-2.8277e-06
-7.33088e-07
-2.35284e-06
-9.39071e-07
-1.81478e-06
-1.05899e-06
-1.26449e-06
-1.07331e-06
-7.58204e-07
-9.70245e-07
-3.51257e-07
-7.51404e-07
-8.95711e-08
-4.40676e-07
-1.07001e-07
-1.42481e-07
2.50452e-07
-5.20252e-07
8.1962e-07
-1.0769e-06
1.30822e-06
-1.74622e-06
1.63841e-06
-2.45771e-06
1.7828e-06
-3.14337e-06
1.74267e-06
-3.74295e-06
1.53753e-06
-4.20749e-06
1.19782e-06
-4.50114e-06
7.59596e-07
-4.6021e-06
2.61384e-07
-4.50288e-06
-2.57371e-07
-4.21049e-06
-7.56855e-07
-3.74638e-06
-1.19719e-06
-3.14632e-06
-1.53914e-06
-2.45949e-06
-1.74582e-06
-1.7466e-06
-1.7862e-06
-1.07621e-06
-1.64063e-06
-5.19232e-07
-1.30838e-06
-1.41896e-07
-8.18012e-07
-2.48898e-07
-1.90807e-07
4.41259e-07
-6.81162e-07
1.30997e-06
-1.38518e-06
2.01224e-06
-2.21367e-06
2.4669e-06
-3.07936e-06
2.64849e-06
-3.9025e-06
2.5658e-06
-4.61506e-06
2.25009e-06
-5.16318e-06
1.74594e-06
-5.50821e-06
1.10463e-06
-5.62687e-06
3.80037e-07
-5.51116e-06
-3.73079e-07
-5.16839e-06
-1.09962e-06
-4.62133e-06
-1.74425e-06
-3.90846e-06
-2.25201e-06
-3.08383e-06
-2.57045e-06
-2.21604e-06
-2.65399e-06
-1.38561e-06
-2.47106e-06
-6.8053e-07
-2.01346e-06
-1.90229e-07
-1.30831e-06
-4.39127e-07
-2.37991e-07
6.79251e-07
-8.41014e-07
1.913e-06
-1.69297e-06
2.8642e-06
-2.67947e-06
3.4534e-06
-3.69504e-06
3.66406e-06
-4.64834e-06
3.51911e-06
-5.46499e-06
3.06673e-06
-6.08833e-06
2.36928e-06
-6.4789e-06
1.4952e-06
-6.6134e-06
5.14534e-07
-6.48382e-06
-5.0266e-07
-6.09719e-06
-1.48625e-06
-5.47606e-06
-2.36538e-06
-4.65951e-06
-3.06856e-06
-3.70436e-06
-3.52561e-06
-2.68566e-06
-3.67269e-06
-1.69584e-06
-3.46088e-06
-8.41468e-07
-2.86783e-06
-2.37624e-07
-1.91216e-06
-6.76751e-07
-2.87094e-07
9.66344e-07
-1.00684e-06
2.63275e-06
-2.01007e-06
3.86742e-06
-3.15445e-06
4.59779e-06
-4.3152e-06
4.8248e-06
-5.39003e-06
4.59394e-06
-6.30019e-06
3.97689e-06
-6.98881e-06
3.0579e-06
-7.41803e-06
1.92442e-06
-7.56619e-06
6.62691e-07
-7.42582e-06
-6.43026e-07
-7.00305e-06
-1.90902e-06
-6.31843e-06
-3.05e-06
-5.40917e-06
-3.97781e-06
-4.33217e-06
-4.60261e-06
-3.16695e-06
-4.83791e-06
-2.01719e-06
-4.61064e-06
-1.00942e-06
-3.87561e-06
-2.87257e-07
-2.63432e-06
-9.64008e-07
-3.40993e-07
1.30734e-06
-1.18531e-06
3.47707e-06
-2.34466e-06
5.02677e-06
-3.64508e-06
5.89821e-06
-4.94174e-06
6.12146e-06
-6.12328e-06
5.77548e-06
-7.10997e-06
4.96358e-06
-7.84846e-06
3.7964e-06
-8.30582e-06
2.38177e-06
-8.46419e-06
8.21059e-07
-8.3174e-06
-7.89815e-07
-7.86986e-06
-2.35657e-06
-7.13789e-06
-3.78197e-06
-6.15345e-06
-4.96226e-06
-4.96961e-06
-5.78644e-06
-3.66689e-06
-6.14063e-06
-2.35839e-06
-5.91914e-06
-1.19138e-06
-5.04262e-06
-3.42142e-07
-3.48355e-06
-1.30615e-06
-4.02538e-07
1.70988e-06
-1.38244e-06
4.45697e-06
-2.70224e-06
6.34657e-06
-4.15131e-06
7.34728e-06
-5.56501e-06
7.53517e-06
-6.82686e-06
7.03733e-06
-7.86168e-06
5.9984e-06
-8.62528e-06
4.56e-06
-9.09411e-06
2.85061e-06
-9.25703e-06
9.83982e-07
-9.11018e-06
-9.36672e-07
-8.65525e-06
-2.81149e-06
-7.90146e-06
-4.53576e-06
-6.87088e-06
-5.99284e-06
-5.60705e-06
-7.05027e-06
-4.18568e-06
-7.56199e-06
-2.72527e-06
-7.37956e-06
-1.39369e-06
-6.3742e-06
-4.05265e-07
-4.47198e-06
-1.71141e-06
-4.75102e-07
2.18498e-06
-1.60417e-06
5.58604e-06
-3.08506e-06
7.82745e-06
-4.66435e-06
8.92657e-06
-6.16002e-06
9.03084e-06
-7.45766e-06
8.33497e-06
-8.49533e-06
7.03607e-06
-9.24579e-06
5.31045e-06
-9.70078e-06
3.30559e-06
-9.85945e-06
1.14266e-06
-9.72149e-06
-1.07463e-06
-9.28483e-06
-3.24815e-06
-8.54801e-06
-5.27258e-06
-7.51732e-06
-7.02354e-06
-6.21872e-06
-8.34887e-06
-4.71421e-06
-9.0665e-06
-3.12013e-06
-8.97364e-06
-1.6225e-06
-7.87183e-06
-4.80129e-07
-5.61435e-06
-2.19154e-06
-5.636e-07
2.74858e-06
-1.85732e-06
6.87975e-06
-3.49125e-06
9.46138e-06
-5.16324e-06
1.05986e-05
-6.68071e-06
1.05483e-05
-7.94372e-06
9.59798e-06
-8.91614e-06
8.00849e-06
-9.59783e-06
5.99215e-06
-1.00028e-05
3.71055e-06
-1.01444e-05
1.2843e-06
-1.00274e-05
-1.19171e-06
-9.64465e-06
-3.63085e-06
-8.9805e-06
-5.93673e-06
-8.01847e-06
-7.98556e-06
-6.75665e-06
-9.61069e-06
-5.23027e-06
-1.05929e-05
-3.54059e-06
-1.06633e-05
-1.8846e-06
-9.52782e-06
-5.71749e-07
-6.9272e-06
-2.76329e-06
-6.76178e-07
3.42476e-06
-2.15059e-06
8.35416e-06
-3.91235e-06
1.12231e-05
-5.60824e-06
1.22945e-05
-7.05059e-06
1.19907e-05
-8.17385e-06
1.07212e-05
-8.98473e-06
8.81937e-06
-9.52195e-06
6.52937e-06
-9.82869e-06
4.01729e-06
-9.93609e-06
1.3917e-06
-9.85486e-06
-1.27294e-06
-9.57258e-06
-3.91314e-06
-9.05599e-06
-6.45332e-06
-8.25926e-06
-8.78229e-06
-7.14075e-06
-1.07292e-05
-5.6914e-06
-1.20422e-05
-3.9767e-06
-1.2378e-05
-2.18826e-06
-1.13163e-05
-6.88305e-07
-8.42716e-06
-3.4516e-06
-8.26943e-07
4.2517e-06
-2.49451e-06
1.00217e-05
-4.3262e-06
1.30548e-05
-5.92753e-06
1.38958e-05
-7.14675e-06
1.32099e-05
-7.9825e-06
1.1557e-05
-8.50484e-06
9.34171e-06
-8.80236e-06
6.8269e-06
-8.95202e-06
4.16694e-06
-9.00408e-06
1.44376e-06
-8.97578e-06
-1.30123e-06
-8.84939e-06
-4.03953e-06
-8.5734e-06
-6.7293e-06
-8.0685e-06
-9.28719e-06
-7.24246e-06
-1.15552e-05
-6.02113e-06
-1.32636e-05
-4.4033e-06
-1.39958e-05
-2.54282e-06
-1.31767e-05
-8.43795e-07
-1.01262e-05
-4.29539e-06
-1.03974e-06
5.29144e-06
-2.89674e-06
1.18787e-05
-4.67875e-06
1.48369e-05
-5.99076e-06
1.52078e-05
-6.7729e-06
1.3992e-05
-7.12788e-06
1.1912e-05
-7.20877e-06
9.42259e-06
-7.15929e-06
6.77742e-06
-7.08842e-06
4.09606e-06
-7.06248e-06
1.41783e-06
-7.10406e-06
-1.25965e-06
-7.19185e-06
-3.95175e-06
-7.25985e-06
-6.6613e-06
-7.19773e-06
-9.34931e-06
-6.85807e-06
-1.18949e-05
-6.08211e-06
-1.40395e-05
-4.76127e-06
-1.53167e-05
-2.9535e-06
-1.49845e-05
-1.06167e-06
-1.2018e-05
-5.35707e-06
-1.35006e-06
6.6415e-06
-3.34133e-06
1.387e-05
-4.84014e-06
1.63357e-05
-5.55778e-06
1.59254e-05
-5.61559e-06
1.40498e-05
-5.26278e-06
1.15592e-05
-4.74331e-06
8.90312e-06
-4.24686e-06
6.28098e-06
-3.90105e-06
3.75025e-06
-3.77804e-06
1.29482e-06
-3.90209e-06
-1.1356e-06
-4.25218e-06
-3.60165e-06
-4.7585e-06
-6.15499e-06
-5.29393e-06
-8.81388e-06
-5.66629e-06
-1.15225e-05
-5.62541e-06
-1.40804e-05
-4.91298e-06
-1.60291e-05
-3.39977e-06
-1.64977e-05
-1.37634e-06
-1.40414e-05
-6.7334e-06
-1.78906e-06
8.43057e-06
-3.71859e-06
1.57995e-05
-4.50378e-06
1.71209e-05
-4.18513e-06
1.56068e-05
-3.17923e-06
1.30439e-05
-1.90154e-06
1.02815e-05
-6.62854e-07
7.66443e-06
3.36059e-07
5.28207e-06
9.78602e-07
3.1077e-06
1.20544e-06
1.06798e-06
9.97159e-07
-9.27318e-07
3.68509e-07
-2.973e-06
-6.2537e-07
-5.16111e-06
-1.8708e-06
-7.56845e-06
-3.16726e-06
-1.02261e-05
-4.19958e-06
-1.30481e-05
-4.5421e-06
-1.56866e-05
-3.76411e-06
-1.72757e-05
-1.81616e-06
-1.59894e-05
-8.54956e-06
-2.30311e-06
1.07337e-05
-3.63038e-06
1.71268e-05
-2.97534e-06
1.64658e-05
-1.07133e-06
1.37028e-05
1.29577e-06
1.06768e-05
3.60295e-06
7.97429e-06
5.55594e-06
5.71145e-06
7.01072e-06
3.82728e-06
7.90604e-06
2.21238e-06
8.2194e-06
7.54616e-07
7.94412e-06
-6.52034e-07
7.08225e-06
-2.11113e-06
5.65142e-06
-3.73028e-06
3.70794e-06
-5.62497e-06
1.39187e-06
-7.91002e-06
-1.00297e-06
-1.06532e-05
-2.9468e-06
-1.37428e-05
-3.63758e-06
-1.65849e-05
-2.3211e-06
-1.73059e-05
-1.08707e-05
-2.49874e-06
1.32324e-05
-1.91604e-06
1.65441e-05
1.23147e-06
1.33183e-05
5.16795e-06
9.7663e-06
8.90721e-06
6.93757e-06
1.20438e-05
4.83768e-06
1.44572e-05
3.29801e-06
1.61475e-05
2.13701e-06
1.71503e-05
1.20962e-06
1.74971e-05
4.07839e-07
1.7199e-05
-3.53948e-07
1.62422e-05
-1.15437e-06
1.45917e-05
-2.0798e-06
1.22068e-05
-3.24007e-06
9.08088e-06
-4.78406e-06
5.32784e-06
-6.90018e-06
1.35131e-06
-9.76625e-06
-1.85341e-06
-1.33802e-05
-2.48694e-06
-1.66724e-05
-1.33576e-05
-5.55489e-07
1.37879e-05
4.68452e-06
1.13041e-05
1.11364e-05
6.86642e-06
1.67179e-05
4.18477e-06
2.10421e-05
2.61339e-06
2.42195e-05
1.66029e-06
2.64571e-05
1.0604e-06
2.79359e-05
6.58186e-07
2.87829e-05
3.62711e-07
2.90708e-05
1.19856e-07
2.88237e-05
-1.06778e-07
2.80177e-05
-3.48444e-07
2.65795e-05
-6.41543e-07
2.43798e-05
-1.04034e-06
2.12323e-05
-1.6366e-06
1.6921e-05
-2.5889e-06
1.13246e-05
-4.16984e-06
4.82449e-06
-6.88011e-06
-4.90332e-07
-1.13575e-05
-1.38479e-05
1.37879e-05
2.5092e-05
3.19584e-05
3.61432e-05
3.87566e-05
4.04168e-05
4.14772e-05
4.21354e-05
4.24981e-05
4.2618e-05
4.25112e-05
4.21628e-05
4.15212e-05
4.04809e-05
3.88443e-05
3.62554e-05
3.20856e-05
2.52055e-05
1.38479e-05
)
;

boundaryField
{
    movingWall
    {
        type            calculated;
        value           uniform 0;
    }
    fixedWalls
    {
        type            calculated;
        value           uniform 0;
    }
    frontAndBack
    {
        type            empty;
        value           nonuniform 0();
    }
}


// ************************************************************************* //
