/*--------------------------------*- C++ -*----------------------------------*\
  =========                 |
  \\      /  F ield         | OpenFOAM: The Open Source CFD Toolbox
   \\    /   O peration     | Website:  https://openfoam.org
    \\  /    A nd           | Version:  6
     \\/     M anipulation  |
\*---------------------------------------------------------------------------*/
FoamFile
{
    version     2.0;
    format      ascii;
    class       volVectorField;
    location    "0.11";
    object      U;
}
// * * * * * * * * * * * * * * * * * * * * * * * * * * * * * * * * * * * * * //

dimensions      [0 1 -1 0 0 0 0];

internalField   nonuniform List<vector> 
400
(
(0.000256304 -0.000252756 0)
(0.000157544 0.000107285 0)
(-0.00114755 0.00056627 0)
(-0.00345714 0.000894633 0)
(-0.00637606 0.00106067 0)
(-0.00949711 0.00107662 0)
(-0.0124534 0.000967192 0)
(-0.0149422 0.00076097 0)
(-0.0167342 0.000486313 0)
(-0.0176753 0.00017036 0)
(-0.0176863 -0.000160497 0)
(-0.0167632 -0.000479708 0)
(-0.0149787 -0.000759689 0)
(-0.0124842 -0.000971284 0)
(-0.00951153 -0.00108399 0)
(-0.00637059 -0.00106777 0)
(-0.00343711 -0.000897956 0)
(-0.00112496 -0.000564259 0)
(0.00017144 -0.000102037 0)
(0.000260022 0.000255691 0)
(-6.90288e-05 -0.000187136 0)
(-0.00157532 0.0016196 0)
(-0.0056342 0.00361488 0)
(-0.0116732 0.00506393 0)
(-0.0188906 0.00579325 0)
(-0.0264541 0.00581001 0)
(-0.033565 0.00520025 0)
(-0.0395347 0.00408761 0)
(-0.0438278 0.00260996 0)
(-0.0460789 0.000909324 0)
(-0.0460996 -0.000870755 0)
(-0.0438824 -0.0025847 0)
(-0.0396037 -0.00408406 0)
(-0.0336238 -0.00521858 0)
(-0.0264827 -0.00584163 0)
(-0.0188816 -0.00582374 0)
(-0.0116354 -0.00507905 0)
(-0.00558941 -0.00360806 0)
(-0.00154566 -0.00159828 0)
(-6.02458e-05 0.000201533 0)
(-0.00051544 0.00104334 0)
(-0.00366095 0.00567525 0)
(-0.0105145 0.0102154 0)
(-0.0199427 0.0134673 0)
(-0.0307796 0.0150499 0)
(-0.0419108 0.0149404 0)
(-0.0522614 0.0133107 0)
(-0.0608959 0.0104394 0)
(-0.0670825 0.00665621 0)
(-0.07032 0.00231272 0)
(-0.0703496 -0.00222932 0)
(-0.0671616 -0.00660182 0)
(-0.0609984 -0.0104325 0)
(-0.0523541 -0.013352 0)
(-0.041965 -0.0150117 0)
(-0.0307824 -0.0151199 0)
(-0.0199025 -0.0135046 0)
(-0.0104584 -0.0102043 0)
(-0.0036203 -0.00562917 0)
(-0.000502505 -0.00100778 0)
(-0.00091075 0.00339302 0)
(-0.00563309 0.0121235 0)
(-0.0152319 0.0199209 0)
(-0.0279014 0.0253136 0)
(-0.0420671 0.0277815 0)
(-0.0563596 0.0273108 0)
(-0.0694937 0.0241966 0)
(-0.0803648 0.0189156 0)
(-0.088117 0.0120383 0)
(-0.0921667 0.00417867 0)
(-0.092213 -0.00402885 0)
(-0.0882429 -0.0119381 0)
(-0.0805352 -0.0188974 0)
(-0.069662 -0.0242633 0)
(-0.0564828 -0.0274335 0)
(-0.04212 -0.027908 0)
(-0.0278868 -0.0253889 0)
(-0.0151801 -0.0199138 0)
(-0.00558663 -0.0120506 0)
(-0.000894143 -0.00332943 0)
(-0.00125958 0.00674771 0)
(-0.00748539 0.0208332 0)
(-0.0197812 0.0325509 0)
(-0.0356247 0.0403176 0)
(-0.0529879 0.0435927 0)
(-0.0702392 0.0424566 0)
(-0.0859103 0.0373915 0)
(-0.0987742 0.0291214 0)
(-0.107901 0.0184961 0)
(-0.112663 0.006423 0)
(-0.112741 -0.00616386 0)
(-0.108115 -0.0183148 0)
(-0.0990753 -0.0290706 0)
(-0.08623 -0.0374802 0)
(-0.0705093 -0.0426448 0)
(-0.0531604 -0.0438027 0)
(-0.0356877 -0.040462 0)
(-0.0197642 -0.032572 0)
(-0.00744428 -0.0207429 0)
(-0.00124087 -0.00665304 0)
(-0.00159164 0.0110476 0)
(-0.00930419 0.0317704 0)
(-0.0243026 0.0481017 0)
(-0.0433116 0.0584599 0)
(-0.0638106 0.0624156 0)
(-0.0838939 0.0602588 0)
(-0.101929 0.0527485 0)
(-0.116606 0.0409185 0)
(-0.126963 0.0259364 0)
(-0.132367 0.00902338 0)
(-0.132495 -0.00857809 0)
(-0.127322 -0.0256092 0)
(-0.117125 -0.0407927 0)
(-0.102508 -0.0528461 0)
(-0.0844238 -0.0605302 0)
(-0.064206 -0.0627517 0)
(-0.043533 -0.0587281 0)
(-0.0243702 -0.0482006 0)
(-0.00928865 -0.0316918 0)
(-0.00157439 -0.0109261 0)
(-0.00193666 0.0162952 0)
(-0.0111891 0.0449687 0)
(-0.0289635 0.0666109 0)
(-0.0511665 0.0797391 0)
(-0.0747434 0.0841844 0)
(-0.097513 0.0805917 0)
(-0.117709 0.0701105 0)
(-0.133987 0.0541593 0)
(-0.145405 0.034261 0)
(-0.151367 0.0119586 0)
(-0.151569 -0.0112074 0)
(-0.145977 -0.0336849 0)
(-0.13483 -0.0538872 0)
(-0.118678 -0.0701883 0)
(-0.0984466 -0.0809646 0)
(-0.0754987 -0.0847066 0)
(-0.0516576 -0.0802161 0)
(-0.0291878 -0.0668729 0)
(-0.0112303 -0.044961 0)
(-0.00192698 -0.0161643 0)
(-0.00232251 0.0225515 0)
(-0.0132367 0.0605353 0)
(-0.033919 0.088152 0)
(-0.0593436 0.104137 0)
(-0.0858743 0.108772 0)
(-0.111072 0.103242 0)
(-0.133096 0.0892272 0)
(-0.15064 0.0686165 0)
(-0.162857 0.043319 0)
(-0.169243 0.0151902 0)
(-0.169542 -0.0139661 0)
(-0.16371 -0.0423475 0)
(-0.151916 -0.0680912 0)
(-0.134599 -0.0892342 0)
(-0.112572 -0.10373 0)
(-0.0871515 -0.109555 0)
(-0.0602428 -0.104942 0)
(-0.0343944 -0.0887074 0)
(-0.0133778 -0.0606989 0)
(-0.00232958 -0.022448 0)
(-0.00277835 0.0299323 0)
(-0.0155429 0.0786462 0)
(-0.0393009 0.112812 0)
(-0.0679159 0.13157 0)
(-0.0971199 0.135918 0)
(-0.12427 0.127826 0)
(-0.147552 0.109676 0)
(-0.165814 0.0839171 0)
(-0.178408 0.0528622 0)
(-0.184994 0.018644 0)
(-0.185407 -0.0167371 0)
(-0.179594 -0.0513066 0)
(-0.167613 -0.0829934 0)
(-0.149715 -0.109532 0)
(-0.126492 -0.128428 0)
(-0.0990878 -0.137048 0)
(-0.0693785 -0.132856 0)
(-0.0401405 -0.113843 0)
(-0.0158393 -0.0791329 0)
(-0.00281484 -0.0299192 0)
(-0.0033423 0.038612 0)
(-0.0182189 0.099534 0)
(-0.0452227 0.140645 0)
(-0.076852 0.161803 0)
(-0.108169 0.165122 0)
(-0.136442 0.153676 0)
(-0.160051 0.130759 0)
(-0.178172 0.0994602 0)
(-0.190489 0.0624909 0)
(-0.196925 0.0221875 0)
(-0.197456 -0.0193621 0)
(-0.192022 -0.0601328 0)
(-0.180529 -0.0979578 0)
(-0.162944 -0.130345 0)
(-0.139494 -0.154365 0)
(-0.110969 -0.166674 0)
(-0.0790282 -0.163745 0)
(-0.0465488 -0.142382 0)
(-0.0187364 -0.100555 0)
(-0.00342478 -0.0387858 0)
(-0.00407566 0.048843 0)
(-0.0214196 0.123479 0)
(-0.0517897 0.171596 0)
(-0.0859783 0.194324 0)
(-0.118393 0.195487 0)
(-0.146434 0.179696 0)
(-0.168944 0.151379 0)
(-0.18565 0.114329 0)
(-0.196742 0.0715986 0)
(-0.202515 0.0256047 0)
(-0.203141 -0.0216359 0)
(-0.198564 -0.0682194 0)
(-0.188494 -0.112049 0)
(-0.172515 -0.150542 0)
(-0.150315 -0.180399 0)
(-0.122084 -0.197504 0)
(-0.088974 -0.197094 0)
(-0.0537149 -0.174306 0)
(-0.0222305 -0.125303 0)
(-0.00422484 -0.0493398 0)
(-0.00508801 0.0610039 0)
(-0.0253873 0.1508 0)
(-0.0590954 0.205386 0)
(-0.0948908 0.228154 0)
(-0.126684 0.225526 0)
(-0.152408 0.20419 0)
(-0.171749 0.169922 0)
(-0.185272 0.127214 0)
(-0.193856 0.0793278 0)
(-0.198271 0.028575 0)
(-0.198933 -0.0233084 0)
(-0.195803 -0.0747585 0)
(-0.188371 -0.12397 0)
(-0.175751 -0.168479 0)
(-0.156917 -0.204769 0)
(-0.131159 -0.227976 0)
(-0.0987056 -0.231871 0)
(-0.0616883 -0.209335 0)
(-0.0265612 -0.153744 0)
(-0.00532868 -0.0620031 0)
(-0.00658165 0.0756958 0)
(-0.0305067 0.181822 0)
(-0.0671617 0.241301 0)
(-0.102747 0.261559 0)
(-0.131152 0.252897 0)
(-0.151513 0.224681 0)
(-0.164873 0.184156 0)
(-0.172939 0.13637 0)
(-0.177422 0.0845561 0)
(-0.179619 0.0306639 0)
(-0.180213 -0.0240977 0)
(-0.179196 -0.078751 0)
(-0.17585 -0.132045 0)
(-0.168792 -0.18192 0)
(-0.156159 -0.224922 0)
(-0.136037 -0.255622 0)
(-0.107182 -0.266219 0)
(-0.0703905 -0.246687 0)
(-0.0320928 -0.186213 0)
(-0.00694175 -0.07742 0)
(-0.00892151 0.0939083 0)
(-0.0373423 0.216755 0)
(-0.0757132 0.277791 0)
(-0.10779 0.291608 0)
(-0.128556 0.274086 0)
(-0.13938 0.237766 0)
(-0.143238 0.191216 0)
(-0.143201 0.13967 0)
(-0.141824 0.0859528 0)
(-0.140873 0.0313442 0)
(-0.141253 -0.0237214 0)
(-0.143001 -0.0790785 0)
(-0.145264 -0.134292 0)
(-0.146257 -0.188048 0)
(-0.143306 -0.23739 0)
(-0.133097 -0.27676 0)
(-0.112327 -0.296983 0)
(-0.0793548 -0.284629 0)
(-0.039335 -0.222858 0)
(-0.00942829 -0.0966123 0)
(-0.0126998 0.117243 0)
(-0.0465059 0.255309 0)
(-0.083493 0.31173 0)
(-0.106321 0.313568 0)
(-0.113293 0.284139 0)
(-0.109347 0.23914 0)
(-0.0998262 0.187802 0)
(-0.0890892 0.134844 0)
(-0.080281 0.082168 0)
(-0.0753868 0.0300727 0)
(-0.07539 -0.0219536 0)
(-0.0803763 -0.0746847 0)
(-0.0895127 -0.12868 0)
(-0.100898 -0.183705 0)
(-0.111351 -0.237864 0)
(-0.116303 -0.286259 0)
(-0.110001 -0.319121 0)
(-0.0869985 -0.319698 0)
(-0.0487721 -0.26319 0)
(-0.0133648 -0.121178 0)
(-0.0185821 0.148237 0)
(-0.0578024 0.295687 0)
(-0.0864047 0.337097 0)
(-0.0905851 0.320182 0)
(-0.0757132 0.276643 0)
(-0.0514421 0.224039 0)
(-0.0252579 0.170783 0)
(-0.00214383 0.120033 0)
(0.0148386 0.0722143 0)
(0.0239777 0.0264502 0)
(0.024472 -0.0187089 0)
(0.016203 -0.0649002 0)
(-0.000255106 -0.11366 0)
(-0.023381 -0.166018 0)
(-0.0502134 -0.221711 0)
(-0.0756905 -0.277629 0)
(-0.0919664 -0.325041 0)
(-0.0887364 -0.345375 0)
(-0.059931 -0.305002 0)
(-0.0193499 -0.153572 0)
(-0.0261483 0.191106 0)
(-0.0672204 0.332213 0)
(-0.0730647 0.342523 0)
(-0.0448383 0.300783 0)
(0.00033493 0.24417 0)
(0.0486734 0.18827 0)
(0.0922743 0.138281 0)
(0.127078 0.0946569 0)
(0.151215 0.0560277 0)
(0.163922 0.0204553 0)
(0.164902 -0.0141391 0)
(0.154043 -0.0498832 0)
(0.131406 -0.0889505 0)
(0.0975027 -0.13347 0)
(0.053961 -0.185086 0)
(0.00469663 -0.243622 0)
(-0.0422735 -0.303929 0)
(-0.0726552 -0.349762 0)
(-0.0682826 -0.341961 0)
(-0.0267555 -0.197774 0)
(-0.0286872 0.24893 0)
(-0.058183 0.348491 0)
(-0.0153986 0.308216 0)
(0.0610705 0.242127 0)
(0.140369 0.180826 0)
(0.21013 0.130877 0)
(0.266179 0.0917434 0)
(0.307676 0.0607872 0)
(0.335123 0.0352457 0)
(0.349248 0.0127483 0)
(0.350481 -0.00875504 0)
(0.338759 -0.0312186 0)
(0.313509 -0.0567552 0)
(0.273794 -0.0878795 0)
(0.218814 -0.127614 0)
(0.149061 -0.178994 0)
(0.0684374 -0.242969 0)
(-0.0106988 -0.312913 0)
(-0.0566127 -0.356739 0)
(-0.0283682 -0.256032 0)
(0.0132475 0.287614 0)
(0.0288538 0.301524 0)
(0.151503 0.213636 0)
(0.279686 0.142603 0)
(0.37992 0.0945411 0)
(0.454437 0.0626293 0)
(0.50833 0.0411763 0)
(0.545517 0.0261022 0)
(0.569003 0.014699 0)
(0.580774 0.00519179 0)
(0.581792 -0.00370055 0)
(0.572066 -0.0131117 0)
(0.550633 -0.0243343 0)
(0.515448 -0.0391819 0)
(0.463324 -0.0604742 0)
(0.390008 -0.0925688 0)
(0.289908 -0.141665 0)
(0.160111 -0.215002 0)
(0.0342392 -0.305704 0)
(0.0158704 -0.292142 0)
(0.304279 0.146877 0)
(0.404862 0.127586 0)
(0.567544 0.074964 0)
(0.684225 0.0421605 0)
(0.752016 0.0241472 0)
(0.793451 0.0141633 0)
(0.820062 0.00846043 0)
(0.837039 0.00499814 0)
(0.847209 0.00267431 0)
(0.852114 0.000888222 0)
(0.852434 -0.000727624 0)
(0.848198 -0.00247167 0)
(0.838788 -0.00470298 0)
(0.822717 -0.00800692 0)
(0.797183 -0.0134751 0)
(0.756965 -0.0231846 0)
(0.690407 -0.041041 0)
(0.574191 -0.074104 0)
(0.409764 -0.127675 0)
(0.306599 -0.147726 0)
)
;

boundaryField
{
    movingWall
    {
        type            fixedValue;
        value           uniform (1 0 0);
    }
    fixedWalls
    {
        type            noSlip;
    }
    frontAndBack
    {
        type            empty;
    }
}


// ************************************************************************* //
