/*--------------------------------*- C++ -*----------------------------------*\
  =========                 |
  \\      /  F ield         | OpenFOAM: The Open Source CFD Toolbox
   \\    /   O peration     | Website:  https://openfoam.org
    \\  /    A nd           | Version:  6
     \\/     M anipulation  |
\*---------------------------------------------------------------------------*/
FoamFile
{
    version     2.0;
    format      ascii;
    class       volScalarField;
    location    "0.045";
    object      p;
}
// * * * * * * * * * * * * * * * * * * * * * * * * * * * * * * * * * * * * * //

dimensions      [0 2 -2 0 0 0 0];

internalField   nonuniform List<scalar> 
400
(
1.78938e-05
-0.0347869
-0.0781347
-0.111584
-0.124112
-0.110771
-0.0711883
-0.00829103
0.0727456
0.165286
0.261853
0.35466
0.436132
0.49947
0.539333
0.552697
0.539947
0.506168
0.462596
0.427792
0.034521
-0.00124202
-0.0352655
-0.0583407
-0.0650237
-0.0518373
-0.0183345
0.0333725
0.0993564
0.174453
0.252754
0.328078
0.394434
0.446522
0.480274
0.493491
0.486627
0.463268
0.429049
0.393325
0.080377
0.0308276
-0.00599613
-0.0272945
-0.0327343
-0.0204083
0.00964912
0.055388
0.113364
0.179152
0.247709
0.313754
0.372155
0.418337
0.4487
0.46109
0.455464
0.433838
0.396763
0.347245
0.122651
0.0540893
0.00828323
-0.0160144
-0.0226485
-0.0111009
0.0178745
0.0618508
0.117358
0.180189
0.245645
0.308823
0.364914
0.409521
0.438968
0.450679
0.443863
0.419151
0.372961
0.304342
0.151607
0.0629259
0.00635085
-0.0222342
-0.0302499
-0.0184136
0.0117251
0.0571637
0.114152
0.178427
0.245356
0.310129
0.36797
0.414365
0.445283
0.457497
0.449369
0.420282
0.363125
0.274185
0.160273
0.0510266
-0.0167931
-0.0495408
-0.0579096
-0.043797
-0.00962962
0.0408584
0.103449
0.173625
0.246622
0.317522
0.381374
0.43333
0.468786
0.483669
0.475378
0.442081
0.373417
0.26355
0.142604
0.0121269
-0.0667629
-0.102484
-0.109079
-0.0897321
-0.0478954
0.0118017
0.0845208
0.165357
0.249291
0.331177
0.405754
0.467685
0.511601
0.532379
0.526255
0.490035
0.409987
0.27832
0.09212
-0.0606476
-0.149838
-0.186201
-0.187655
-0.158996
-0.104952
-0.0312345
0.0565827
0.153149
0.253163
0.351232
0.441749
0.518805
0.576113
0.607251
0.606985
0.570365
0.479686
0.324905
0.000806799
-0.175707
-0.273659
-0.306894
-0.29829
-0.254853
-0.182966
-0.0896322
0.0187723
0.136488
0.258026
0.377857
0.490113
0.588325
0.665181
0.712689
0.723678
0.690757
0.591042
0.411415
-0.141963
-0.343929
-0.447799
-0.472032
-0.446317
-0.380823
-0.284096
-0.16465
-0.0296397
0.11494
0.263669
0.411158
0.55153
0.677916
0.781969
0.853842
0.88382
0.860995
0.755273
0.548835
-0.350873
-0.579884
-0.684414
-0.690435
-0.637452
-0.540188
-0.409966
-0.256955
-0.0889013
0.0883449
0.269904
0.451034
0.626329
0.788909
0.929562
1.03639
1.09642
1.09367
0.987602
0.752599
-0.647115
-0.903673
-0.999038
-0.972194
-0.87721
-0.735209
-0.560879
-0.36596
-0.158301
0.0570804
0.276613
0.496998
0.714092
0.92173
1.11035
1.26609
1.37202
1.40507
1.3092
1.04521
-1.06306
-1.34386
-1.41144
-1.32818
-1.16976
-0.965832
-0.734655
-0.488912
-0.235539
0.0224065
0.283798
0.547924
0.813087
1.07504
1.325
1.54778
1.72231
1.81612
1.75025
1.46112
-1.65196
-1.94221
-1.94611
-1.76838
-1.51565
-1.22753
-0.924905
-0.61967
-0.315969
-0.0131807
0.291561
0.601631
0.919384
1.24434
1.57052
1.88335
2.15861
2.3529
2.3548
2.0568
-2.5079
-2.7606
-2.63057
-2.29738
-1.90715
-1.50759
-1.11849
-0.747158
-0.391789
-0.0456873
0.299894
0.654149
1.02544
1.41958
1.83678
2.26719
2.68743
3.04509
3.18769
2.93102
-3.80001
-3.88705
-3.48934
-2.90666
-2.32192
-1.78093
-1.29323
-0.854357
-0.451793
-0.0697874
0.308245
0.69896
1.11871
1.58267
2.10225
2.67991
3.30279
3.91969
4.34027
4.25899
-5.83244
-5.4357
-4.53243
-3.56807
-2.7203
-2.00973
-1.41903
-0.920091
-0.483059
-0.0799926
0.315016
0.727076
1.18201
1.7075
2.33287
3.08519
3.97938
4.98926
5.92968
6.35122
-9.28486
-7.55096
-5.69686
-4.18852
-3.01863
-2.12956
-1.45169
-0.916896
-0.470843
-0.0715373
0.315986
0.724467
1.18889
1.75126
2.46589
3.40103
4.62562
6.19288
8.10495
9.89566
-15.9314
-10.3233
-6.56605
-4.38392
-2.94829
-1.9685
-1.28694
-0.785247
-0.38546
-0.036484
0.299965
0.658474
1.07737
1.60783
2.32803
3.35758
4.85667
7.11562
10.9622
16.6723
-27.0777
-12.99
-6.27686
-3.5885
-2.19644
-1.36868
-0.848518
-0.489865
-0.212799
0.026984
0.259108
0.509308
0.807163
1.19678
1.75779
2.63775
4.10085
6.88633
13.7135
27.916
)
;

boundaryField
{
    movingWall
    {
        type            zeroGradient;
    }
    fixedWalls
    {
        type            zeroGradient;
    }
    frontAndBack
    {
        type            empty;
    }
}


// ************************************************************************* //
