/*--------------------------------*- C++ -*----------------------------------*\
  =========                 |
  \\      /  F ield         | OpenFOAM: The Open Source CFD Toolbox
   \\    /   O peration     | Website:  https://openfoam.org
    \\  /    A nd           | Version:  6
     \\/     M anipulation  |
\*---------------------------------------------------------------------------*/
FoamFile
{
    version     2.0;
    format      ascii;
    class       volVectorField;
    location    "0.045";
    object      U;
}
// * * * * * * * * * * * * * * * * * * * * * * * * * * * * * * * * * * * * * //

dimensions      [0 1 -1 0 0 0 0];

internalField   nonuniform List<vector> 
400
(
(0.000257193 -0.000253586 0)
(0.000159966 0.0001059 0)
(-0.00114401 0.000565377 0)
(-0.00345369 0.000894593 0)
(-0.00637456 0.00106123 0)
(-0.00949843 0.00107724 0)
(-0.012457 0.000967328 0)
(-0.0149463 0.000760329 0)
(-0.0167367 0.000484943 0)
(-0.0176746 0.000168629 0)
(-0.017682 -0.000162038 0)
(-0.0167561 -0.000480527 0)
(-0.0149706 -0.000759467 0)
(-0.0124775 -0.000970056 0)
(-0.00950806 -0.00108215 0)
(-0.00637093 -0.00106597 0)
(-0.00344035 -0.000896812 0)
(-0.00112893 -0.000564041 0)
(0.000169296 -0.000102418 0)
(0.000259718 0.000255502 0)
(-6.70108e-05 -0.000189772 0)
(-0.00156976 0.00161547 0)
(-0.00562637 0.00361284 0)
(-0.0116658 0.00506528 0)
(-0.0188869 0.00579698 0)
(-0.0264554 0.00581387 0)
(-0.0335701 0.00520201 0)
(-0.0395404 0.00408599 0)
(-0.0438303 0.0026051 0)
(-0.0460753 0.000902681 0)
(-0.0460891 -0.000876937 0)
(-0.0438667 -0.00258823 0)
(-0.0395864 -0.00408361 0)
(-0.0336093 -0.00521423 0)
(-0.0264745 -0.00583497 0)
(-0.0188809 -0.00581733 0)
(-0.0116406 -0.00507538 0)
(-0.0055965 -0.00360832 0)
(-0.00154995 -0.0016013 0)
(-6.11309e-05 0.000199305 0)
(-0.00051259 0.00103754 0)
(-0.00365319 0.00566722 0)
(-0.0105041 0.0102124 0)
(-0.0199338 0.0134716 0)
(-0.0307761 0.0150592 0)
(-0.0419141 0.0149498 0)
(-0.0522693 0.0133153 0)
(-0.060904 0.0104364 0)
(-0.0670856 0.00664595 0)
(-0.0703143 0.00229842 0)
(-0.0703341 -0.00224278 0)
(-0.0671384 -0.00660965 0)
(-0.0609724 -0.0104318 0)
(-0.0523312 -0.0133428 0)
(-0.0419503 -0.0149973 0)
(-0.0307781 -0.0151059 0)
(-0.0199069 -0.0134966 0)
(-0.0104667 -0.0102051 0)
(-0.00362608 -0.00563657 0)
(-0.000503961 -0.00101388 0)
(-0.000907149 0.00338228 0)
(-0.00562402 0.0121103 0)
(-0.0152216 0.0199173 0)
(-0.0278956 0.0253226 0)
(-0.0420705 0.0277984 0)
(-0.0563725 0.0273268 0)
(-0.069512 0.0242036 0)
(-0.0803818 0.0189093 0)
(-0.0881253 0.0120195 0)
(-0.0921611 0.00415299 0)
(-0.092192 -0.00405304 0)
(-0.0882092 -0.0119526 0)
(-0.0804954 -0.0188971 0)
(-0.0696244 -0.0242481 0)
(-0.0564547 -0.0274086 0)
(-0.0421058 -0.0278827 0)
(-0.0278859 -0.0253729 0)
(-0.0151871 -0.0199127 0)
(-0.00559305 -0.0120618 0)
(-0.000896076 -0.00333993 0)
(-0.00125547 0.0067314 0)
(-0.00747689 0.0208161 0)
(-0.0197762 0.0325504 0)
(-0.0356309 0.040336 0)
(-0.0530099 0.0436211 0)
(-0.0702751 0.0424812 0)
(-0.0859521 0.0374002 0)
(-0.0988112 0.0291081 0)
(-0.107922 0.0184628 0)
(-0.112661 0.00637879 0)
(-0.112713 -0.00620592 0)
(-0.108065 -0.0183418 0)
(-0.099012 -0.0290741 0)
(-0.0861654 -0.0374592 0)
(-0.0704552 -0.0426067 0)
(-0.053125 -0.0437612 0)
(-0.035673 -0.0404324 0)
(-0.0197649 -0.0325646 0)
(-0.00744949 -0.020756 0)
(-0.00124299 -0.00666832 0)
(-0.00158762 0.0110264 0)
(-0.00929965 0.031754 0)
(-0.0243113 0.0481122 0)
(-0.0433435 0.0584965 0)
(-0.0638687 0.0624624 0)
(-0.0839719 0.0602949 0)
(-0.102013 0.0527567 0)
(-0.116678 0.0408912 0)
(-0.127007 0.0258779 0)
(-0.132373 0.00894787 0)
(-0.132458 -0.00865086 0)
(-0.127247 -0.0256596 0)
(-0.117025 -0.0408072 0)
(-0.102399 -0.0528216 0)
(-0.0843253 -0.0604758 0)
(-0.0641325 -0.0626866 0)
(-0.0434912 -0.0586755 0)
(-0.0243564 -0.0481783 0)
(-0.0092893 -0.0317017 0)
(-0.0015761 -0.0109455 0)
(-0.00193374 0.0162719 0)
(-0.0111937 0.0449627 0)
(-0.0289979 0.0666464 0)
(-0.0512426 0.0798079 0)
(-0.0748608 0.0842597 0)
(-0.0976577 0.0806424 0)
(-0.117858 0.0701136 0)
(-0.134113 0.0541064 0)
(-0.145485 0.0341604 0)
(-0.151386 0.0118319 0)
(-0.15152 -0.0113309 0)
(-0.145867 -0.0337762 0)
(-0.134675 -0.0539249 0)
(-0.118504 -0.0701654 0)
(-0.0982802 -0.0808911 0)
(-0.0753644 -0.0846079 0)
(-0.0515701 -0.080126 0)
(-0.0291475 -0.0668212 0)
(-0.0112212 -0.0449577 0)
(-0.00192727 -0.0161848 0)
(-0.00232225 0.0225322 0)
(-0.0132577 0.0605561 0)
(-0.0339948 0.0882339 0)
(-0.0594871 0.104257 0)
(-0.0860781 0.108888 0)
(-0.111311 0.10331 0)
(-0.133335 0.0892173 0)
(-0.15084 0.0685208 0)
(-0.162987 0.0431522 0)
(-0.16928 0.0149846 0)
(-0.16948 -0.0141684 0)
(-0.163556 -0.0425043 0)
(-0.151691 -0.0681705 0)
(-0.134337 -0.0892219 0)
(-0.112311 -0.103635 0)
(-0.0869296 -0.109411 0)
(-0.0600866 -0.104794 0)
(-0.0343118 -0.0886044 0)
(-0.0133518 -0.0606654 0)
(-0.00232694 -0.0224633 0)
(-0.00278289 0.0299276 0)
(-0.0155895 0.0787189 0)
(-0.0394368 0.112971 0)
(-0.0681528 0.131768 0)
(-0.0974388 0.13609 0)
(-0.12463 0.127912 0)
(-0.147902 0.109641 0)
(-0.166105 0.0837553 0)
(-0.178598 0.0525985 0)
(-0.185055 0.0183249 0)
(-0.185331 -0.0170533 0)
(-0.179389 -0.0515612 0)
(-0.167305 -0.0831393 0)
(-0.149345 -0.109544 0)
(-0.126112 -0.128314 0)
(-0.0987508 -0.136843 0)
(-0.0691279 -0.132625 0)
(-0.0399966 -0.113658 0)
(-0.0157871 -0.0790436 0)
(-0.00280719 -0.029919 0)
(-0.00335445 0.0386377 0)
(-0.018302 0.0996934 0)
(-0.045439 0.140918 0)
(-0.0772075 0.162108 0)
(-0.108627 0.165363 0)
(-0.136943 0.153777 0)
(-0.160528 0.13068 0)
(-0.178562 0.0992035 0)
(-0.190743 0.0620946 0)
(-0.197013 0.0217157 0)
(-0.197368 -0.0198318 0)
(-0.191766 -0.0605223 0)
(-0.180133 -0.0982018 0)
(-0.162456 -0.130404 0)
(-0.138978 -0.154237 0)
(-0.110494 -0.166398 0)
(-0.0786582 -0.163403 0)
(-0.0463231 -0.142076 0)
(-0.018647 -0.100374 0)
(-0.00340943 -0.0387537 0)
(-0.00409896 0.0489218 0)
(-0.0215512 0.12377 0)
(-0.0521052 0.172028 0)
(-0.0864704 0.194766 0)
(-0.119001 0.195806 0)
(-0.147077 0.179801 0)
(-0.16954 0.151232 0)
(-0.186129 0.113946 0)
(-0.197053 0.0710343 0)
(-0.202629 0.0249432 0)
(-0.203046 -0.0222969 0)
(-0.198268 -0.0687812 0)
(-0.188025 -0.112426 0)
(-0.17192 -0.150675 0)
(-0.149665 -0.18027 0)
(-0.121462 -0.197151 0)
(-0.0884676 -0.196612 0)
(-0.0533886 -0.173835 0)
(-0.0220918 -0.124986 0)
(-0.00419841 -0.049253 0)
(-0.00512677 0.0611654 0)
(-0.0255791 0.151274 0)
(-0.0595217 0.206023 0)
(-0.0955206 0.228754 0)
(-0.127427 0.225921 0)
(-0.153163 0.204279 0)
(-0.172425 0.16968 0)
(-0.185803 0.126675 0)
(-0.1942 0.0785681 0)
(-0.198402 0.0276982 0)
(-0.198844 -0.0241866 0)
(-0.195498 -0.0755215 0)
(-0.18787 -0.124512 0)
(-0.175093 -0.168718 0)
(-0.156169 -0.204665 0)
(-0.130411 -0.227554 0)
(-0.0980639 -0.231232 0)
(-0.0612503 -0.208656 0)
(-0.0263617 -0.153237 0)
(-0.00528724 -0.0618316 0)
(-0.00664088 0.0759767 0)
(-0.0307673 0.182533 0)
(-0.0676942 0.242176 0)
(-0.103483 0.262319 0)
(-0.13197 0.253344 0)
(-0.1523 0.224722 0)
(-0.165546 0.183789 0)
(-0.17345 0.135656 0)
(-0.177747 0.0835937 0)
(-0.17975 0.0295716 0)
(-0.180146 -0.0251936 0)
(-0.178931 -0.0797231 0)
(-0.175391 -0.132772 0)
(-0.168159 -0.182298 0)
(-0.155397 -0.224883 0)
(-0.135227 -0.255161 0)
(-0.10644 -0.265426 0)
(-0.0698468 -0.245767 0)
(-0.0318248 -0.185461 0)
(-0.00688104 -0.0771263 0)
(-0.00900652 0.0943509 0)
(-0.037672 0.217749 0)
(-0.0763163 0.278909 0)
(-0.108549 0.292493 0)
(-0.129326 0.274533 0)
(-0.140057 0.237712 0)
(-0.143772 0.1907 0)
(-0.14358 0.138785 0)
(-0.142057 0.0848147 0)
(-0.140974 0.0300766 0)
(-0.141227 -0.0249941 0)
(-0.142842 -0.0802312 0)
(-0.144955 -0.135199 0)
(-0.145785 -0.188588 0)
(-0.142675 -0.237462 0)
(-0.132354 -0.276316 0)
(-0.111574 -0.296077 0)
(-0.0787442 -0.283468 0)
(-0.0390007 -0.221818 0)
(-0.00934457 -0.0961537 0)
(-0.012814 0.117889 0)
(-0.046885 0.256598 0)
(-0.0840779 0.313042 0)
(-0.106946 0.314494 0)
(-0.113818 0.284504 0)
(-0.109714 0.238945 0)
(-0.100041 0.187137 0)
(-0.0891972 0.13383 0)
(-0.0803333 0.080929 0)
(-0.0754228 0.0287224 0)
(-0.0754249 -0.023309 0)
(-0.0803968 -0.0759394 0)
(-0.0894795 -0.12972 0)
(-0.100756 -0.184405 0)
(-0.11105 -0.238094 0)
(-0.115826 -0.285918 0)
(-0.109399 -0.318196 0)
(-0.0864153 -0.318354 0)
(-0.0483963 -0.261852 0)
(-0.0132577 -0.120513 0)
(-0.0187192 0.149116 0)
(-0.0581668 0.297215 0)
(-0.0868016 0.33847 0)
(-0.0908367 0.321004 0)
(-0.0757412 0.276829 0)
(-0.0512724 0.223673 0)
(-0.0249783 0.170007 0)
(-0.00185771 0.118982 0)
(0.015042 0.0710011 0)
(0.0240389 0.0251619 0)
(0.0243686 -0.0200005 0)
(0.0159519 -0.0661245 0)
(-0.000598199 -0.114733 0)
(-0.0237268 -0.166829 0)
(-0.0504534 -0.222121 0)
(-0.0757264 -0.277487 0)
(-0.0917581 -0.324244 0)
(-0.0883566 -0.34399 0)
(-0.0595867 -0.303426 0)
(-0.0192316 -0.152673 0)
(-0.0262688 0.192206 0)
(-0.0674214 0.333817 0)
(-0.0730123 0.343734 0)
(-0.044437 0.301329 0)
(0.00103194 0.244104 0)
(0.0495295 0.187759 0)
(0.093129 0.13749 0)
(0.127791 0.0937105 0)
(0.151685 0.0550046 0)
(0.164088 0.0194026 0)
(0.164741 -0.0151916 0)
(0.153571 -0.0509079 0)
(0.130677 -0.0899056 0)
(0.0966153 -0.134282 0)
(0.053055 -0.185636 0)
(0.00393986 -0.243739 0)
(-0.0427274 -0.303427 0)
(-0.0727398 -0.34856 0)
(-0.0681308 -0.340316 0)
(-0.0266745 -0.196651 0)
(-0.0286682 0.250106 0)
(-0.0579616 0.349857 0)
(-0.0146296 0.309014 0)
(0.0622824 0.242293 0)
(0.141806 0.180541 0)
(0.211576 0.130343 0)
(0.267458 0.091101 0)
(0.308665 0.0601119 0)
(0.33575 0.0345704 0)
(0.349478 0.012081 0)
(0.350299 -0.0094189 0)
(0.338175 -0.0318856 0)
(0.312554 -0.0574234 0)
(0.272535 -0.0885243 0)
(0.217367 -0.128167 0)
(0.147602 -0.179319 0)
(0.0671943 -0.242854 0)
(-0.0114963 -0.312146 0)
(-0.0569159 -0.355357 0)
(-0.0284567 -0.254841 0)
(0.0136402 0.288402 0)
(0.0297045 0.302273 0)
(0.152938 0.213909 0)
(0.2814 0.142477 0)
(0.38162 0.0942251 0)
(0.455944 0.0622698 0)
(0.509547 0.0408368 0)
(0.5464 0.025799 0)
(0.569542 0.0144278 0)
(0.580971 0.00494063 0)
(0.58165 -0.00394707 0)
(0.571584 -0.0133701 0)
(0.54981 -0.0246206 0)
(0.514292 -0.0395071 0)
(0.46187 -0.0608328 0)
(0.388346 -0.09291 0)
(0.288216 -0.141851 0)
(0.158678 -0.214821 0)
(0.0332941 -0.305062 0)
(0.0153876 -0.291422 0)
(0.304632 0.147055 0)
(0.405636 0.127652 0)
(0.568646 0.0748544 0)
(0.685269 0.0419889 0)
(0.752863 0.0239895 0)
(0.794096 0.014045 0)
(0.820524 0.00837921 0)
(0.837345 0.00494376 0)
(0.847384 0.00263699 0)
(0.852175 0.000860057 0)
(0.852388 -0.000753479 0)
(0.848043 -0.00250235 0)
(0.83851 -0.00474736 0)
(0.822294 -0.00807714 0)
(0.796584 -0.0135863 0)
(0.756163 -0.0233478 0)
(0.689392 -0.0412427 0)
(0.573078 -0.0742817 0)
(0.408903 -0.127713 0)
(0.306178 -0.147622 0)
)
;

boundaryField
{
    movingWall
    {
        type            fixedValue;
        value           uniform (1 0 0);
    }
    fixedWalls
    {
        type            noSlip;
    }
    frontAndBack
    {
        type            empty;
    }
}


// ************************************************************************* //
