/*--------------------------------*- C++ -*----------------------------------*\
  =========                 |
  \\      /  F ield         | OpenFOAM: The Open Source CFD Toolbox
   \\    /   O peration     | Website:  https://openfoam.org
    \\  /    A nd           | Version:  6
     \\/     M anipulation  |
\*---------------------------------------------------------------------------*/
FoamFile
{
    version     2.0;
    format      ascii;
    class       volVectorField;
    location    "0.03";
    object      U;
}
// * * * * * * * * * * * * * * * * * * * * * * * * * * * * * * * * * * * * * //

dimensions      [0 1 -1 0 0 0 0];

internalField   nonuniform List<vector> 
400
(
(0.000257673 -0.000253997 0)
(0.000161242 0.000105165 0)
(-0.00114214 0.000564853 0)
(-0.00345176 0.00089448 0)
(-0.00637345 0.00106142 0)
(-0.00949856 0.00107745 0)
(-0.0124581 0.000967311 0)
(-0.0149475 0.000759935 0)
(-0.0167371 0.000484206 0)
(-0.0176734 0.000167741 0)
(-0.0176789 -0.000162799 0)
(-0.0167516 -0.000480895 0)
(-0.0149657 -0.000759289 0)
(-0.0124734 -0.000969354 0)
(-0.00950578 -0.00108114 0)
(-0.00637072 -0.00106497 0)
(-0.00344175 -0.000896149 0)
(-0.00113082 -0.000563863 0)
(0.000168257 -0.000102571 0)
(0.000259581 0.000255418 0)
(-6.59372e-05 -0.000191092 0)
(-0.00156679 0.00161326 0)
(-0.00562207 0.00361155 0)
(-0.0116614 0.0050656 0)
(-0.0188839 0.00579847 0)
(-0.0264545 0.00581545 0)
(-0.0335707 0.00520257 0)
(-0.0395411 0.00408492 0)
(-0.0438291 0.00260249 0)
(-0.046071 0.000899288 0)
(-0.0460813 -0.000879986 0)
(-0.0438564 -0.00258984 0)
(-0.0395755 -0.00408313 0)
(-0.0336002 -0.00521173 0)
(-0.0264688 -0.00583126 0)
(-0.0188794 -0.00581373 0)
(-0.0116425 -0.00507319 0)
(-0.00559967 -0.00360818 0)
(-0.00155192 -0.00160267 0)
(-6.15124e-05 0.000198215 0)
(-0.000511073 0.00103457 0)
(-0.00364899 0.00566286 0)
(-0.0104983 0.0102103 0)
(-0.0199281 0.013473 0)
(-0.0307726 0.0150631 0)
(-0.0419134 0.0149537 0)
(-0.0522705 0.0133169 0)
(-0.0609047 0.0104344 0)
(-0.0670836 0.00664045 0)
(-0.0703077 0.00229113 0)
(-0.0703225 -0.00224941 0)
(-0.0671231 -0.00661324 0)
(-0.060956 -0.0104309 0)
(-0.0523169 -0.0133375 0)
(-0.0419406 -0.0149893 0)
(-0.0307741 -0.0150981 0)
(-0.019908 -0.0134918 0)
(-0.0104702 -0.0102048 0)
(-0.00362865 -0.00563989 0)
(-0.000504591 -0.00101684 0)
(-0.000905224 0.00337668 0)
(-0.00561906 0.012103 0)
(-0.0152155 0.0199144 0)
(-0.0278911 0.0253257 0)
(-0.0420698 0.0278053 0)
(-0.0563759 0.0273334 0)
(-0.0695175 0.0242058 0)
(-0.0803861 0.0189051 0)
(-0.0881249 0.0120095 0)
(-0.0921535 0.00413992 0)
(-0.0921767 -0.00406496 0)
(-0.0881878 -0.0119593 0)
(-0.0804713 -0.018896 0)
(-0.0696018 -0.0242392 0)
(-0.0564376 -0.0273947 0)
(-0.0420964 -0.0278685 0)
(-0.0278839 -0.0253635 0)
(-0.0151897 -0.019911 0)
(-0.00559583 -0.0120667 0)
(-0.000896914 -0.00334494 0)
(-0.00125326 0.0067228 0)
(-0.00747213 0.0208064 0)
(-0.0197726 0.0325484 0)
(-0.0356322 0.0403431 0)
(-0.0530184 0.043633 0)
(-0.0702896 0.0424913 0)
(-0.085969 0.0374026 0)
(-0.098825 0.0291 0)
(-0.107927 0.0184452 0)
(-0.112655 0.00635633 0)
(-0.112694 -0.00622668 0)
(-0.108034 -0.0183545 0)
(-0.0989757 -0.0290745 0)
(-0.086129 -0.0374469 0)
(-0.0704248 -0.0425854 0)
(-0.0531047 -0.0437381 0)
(-0.0356638 -0.0404154 0)
(-0.0197642 -0.0325591 0)
(-0.00745159 -0.0207613 0)
(-0.0012439 -0.00667552 0)
(-0.00158542 0.0110151 0)
(-0.00929685 0.0317441 0)
(-0.0243146 0.048115 0)
(-0.0433577 0.0585119 0)
(-0.0638953 0.0624828 0)
(-0.0840076 0.06031 0)
(-0.102051 0.0527581 0)
(-0.11671 0.0408755 0)
(-0.127025 0.0258473 0)
(-0.13237 0.00890963 0)
(-0.132435 -0.00868686 0)
(-0.127204 -0.0256836 0)
(-0.11697 -0.0408126 0)
(-0.10234 -0.0528069 0)
(-0.0842727 -0.0604457 0)
(-0.0640931 -0.062651 0)
(-0.0434685 -0.0586462 0)
(-0.0243484 -0.0481646 0)
(-0.0092891 -0.031705 0)
(-0.00157679 -0.0109545 0)
(-0.0019321 0.0162594 0)
(-0.0111955 0.0449574 0)
(-0.0290142 0.066661 0)
(-0.0512792 0.0798387 0)
(-0.0749173 0.0842935 0)
(-0.0977272 0.0806641 0)
(-0.117929 0.0701119 0)
(-0.134172 0.0540775 0)
(-0.145521 0.0341084 0)
(-0.15139 0.011768 0)
(-0.151491 -0.0113922 0)
(-0.145807 -0.0338202 0)
(-0.134594 -0.0539413 0)
(-0.118414 -0.0701508 0)
(-0.0981941 -0.0808506 0)
(-0.0752951 -0.0845547 0)
(-0.0515248 -0.0800773 0)
(-0.0291264 -0.0667922 0)
(-0.0112161 -0.0449538 0)
(-0.00192724 -0.0161941 0)
(-0.00232195 0.0225216 0)
(-0.0132678 0.060564 0)
(-0.0340321 0.0882713 0)
(-0.0595579 0.104314 0)
(-0.0861786 0.108942 0)
(-0.111429 0.103339 0)
(-0.133451 0.0892085 0)
(-0.150937 0.0684699 0)
(-0.163049 0.0430669 0)
(-0.169296 0.0148811 0)
(-0.169445 -0.0142689 0)
(-0.163475 -0.0425809 0)
(-0.151576 -0.0682072 0)
(-0.134203 -0.089212 0)
(-0.112179 -0.103583 0)
(-0.0868173 -0.109334 0)
(-0.0600076 -0.104716 0)
(-0.0342698 -0.0885492 0)
(-0.0133384 -0.060646 0)
(-0.00232547 -0.0224699 0)
(-0.00278502 0.029924 0)
(-0.0156126 0.0787525 0)
(-0.0395046 0.113046 0)
(-0.068271 0.131862 0)
(-0.0975977 0.136171 0)
(-0.12481 0.12795 0)
(-0.148076 0.109619 0)
(-0.166249 0.0836709 0)
(-0.17869 0.0524643 0)
(-0.185083 0.0181644 0)
(-0.18529 -0.0172107 0)
(-0.179283 -0.0516862 0)
(-0.167148 -0.0832089 0)
(-0.149158 -0.109547 0)
(-0.125921 -0.128251 0)
(-0.0985818 -0.136736 0)
(-0.0690023 -0.132506 0)
(-0.0399245 -0.113561 0)
(-0.0157608 -0.0789961 0)
(-0.00280324 -0.0299177 0)
(-0.00336045 0.0386494 0)
(-0.0183436 0.0997704 0)
(-0.0455476 0.141051 0)
(-0.0773858 0.162256 0)
(-0.108857 0.165479 0)
(-0.137193 0.153822 0)
(-0.160766 0.130636 0)
(-0.178756 0.0990712 0)
(-0.190869 0.0618938 0)
(-0.197056 0.0214789 0)
(-0.197322 -0.0200658 0)
(-0.191636 -0.0607145 0)
(-0.179934 -0.0983198 0)
(-0.162212 -0.130429 0)
(-0.13872 -0.154167 0)
(-0.110257 -0.166255 0)
(-0.0784738 -0.163228 0)
(-0.0462107 -0.14192 0)
(-0.0186023 -0.100281 0)
(-0.00340167 -0.0387365 0)
(-0.00411061 0.0489601 0)
(-0.0216174 0.123913 0)
(-0.052264 0.172241 0)
(-0.0867179 0.194982 0)
(-0.119307 0.195961 0)
(-0.1474 0.179849 0)
(-0.169838 0.151154 0)
(-0.186368 0.11375 0)
(-0.197209 0.0707492 0)
(-0.202685 0.0246113 0)
(-0.202999 -0.0226264 0)
(-0.19812 -0.0690592 0)
(-0.187791 -0.11261 0)
(-0.171624 -0.150736 0)
(-0.149341 -0.1802 0)
(-0.121153 -0.19697 0)
(-0.0882157 -0.196367 0)
(-0.0532265 -0.173597 0)
(-0.0220228 -0.124825 0)
(-0.00418519 -0.0492086 0)
(-0.00514626 0.0612453 0)
(-0.0256757 0.151509 0)
(-0.0597364 0.206338 0)
(-0.0958376 0.22905 0)
(-0.127801 0.226113 0)
(-0.153542 0.204318 0)
(-0.172764 0.169553 0)
(-0.18607 0.1264 0)
(-0.194372 0.078185 0)
(-0.198468 0.0272585 0)
(-0.1988 -0.0246247 0)
(-0.195346 -0.0758999 0)
(-0.18762 -0.124778 0)
(-0.174766 -0.168832 0)
(-0.155796 -0.204608 0)
(-0.130039 -0.227338 0)
(-0.097745 -0.230909 0)
(-0.0610328 -0.208313 0)
(-0.0262626 -0.152982 0)
(-0.00526662 -0.061745 0)
(-0.00667077 0.0761169 0)
(-0.0308987 0.182888 0)
(-0.0679623 0.242612 0)
(-0.103853 0.262695 0)
(-0.132381 0.253561 0)
(-0.152695 0.224736 0)
(-0.165884 0.183599 0)
(-0.173707 0.135294 0)
(-0.177911 0.0831089 0)
(-0.179816 0.0290241 0)
(-0.180113 -0.0257404 0)
(-0.178799 -0.0802059 0)
(-0.175162 -0.13313 0)
(-0.167844 -0.18248 0)
(-0.155018 -0.224856 0)
(-0.134823 -0.254924 0)
(-0.106071 -0.265025 0)
(-0.0695768 -0.245305 0)
(-0.0316918 -0.185084 0)
(-0.00685092 -0.0769791 0)
(-0.00904955 0.0945726 0)
(-0.0378382 0.218247 0)
(-0.0766198 0.279467 0)
(-0.108931 0.292932 0)
(-0.129712 0.274751 0)
(-0.140397 0.237679 0)
(-0.14404 0.190435 0)
(-0.14377 0.138337 0)
(-0.142175 0.0842421 0)
(-0.141026 0.0294414 0)
(-0.141216 -0.0256294 0)
(-0.142764 -0.0808043 0)
(-0.144802 -0.135647 0)
(-0.145549 -0.188851 0)
(-0.14236 -0.237491 0)
(-0.131983 -0.276088 0)
(-0.1112 -0.295621 0)
(-0.0784407 -0.282886 0)
(-0.0388348 -0.221298 0)
(-0.00930316 -0.0959247 0)
(-0.012872 0.118214 0)
(-0.0470762 0.257243 0)
(-0.0843718 0.313697 0)
(-0.107259 0.314952 0)
(-0.114082 0.284681 0)
(-0.109897 0.23884 0)
(-0.10015 0.186797 0)
(-0.0892523 0.133318 0)
(-0.0803614 0.0803062 0)
(-0.0754432 0.0280461 0)
(-0.0754448 -0.0239859 0)
(-0.080409 -0.0765639 0)
(-0.089464 -0.130235 0)
(-0.100686 -0.184748 0)
(-0.1109 -0.238202 0)
(-0.115587 -0.285742 0)
(-0.109099 -0.317729 0)
(-0.0861249 -0.317681 0)
(-0.0482099 -0.261183 0)
(-0.0132049 -0.120181 0)
(-0.0187891 0.149557 0)
(-0.0583509 0.297981 0)
(-0.0870003 0.339155 0)
(-0.0909618 0.321411 0)
(-0.0757543 0.276916 0)
(-0.0511873 0.223483 0)
(-0.0248394 0.169613 0)
(-0.00171707 0.118453 0)
(0.01514 0.0703921 0)
(0.0240651 0.0245169 0)
(0.0243124 -0.0206457 0)
(0.0158225 -0.0667345 0)
(-0.000772335 -0.115265 0)
(-0.0239007 -0.167229 0)
(-0.050573 -0.222319 0)
(-0.0757434 -0.277409 0)
(-0.0916531 -0.323841 0)
(-0.0881667 -0.343295 0)
(-0.0594161 -0.302639 0)
(-0.0191736 -0.152225 0)
(-0.0263308 0.192758 0)
(-0.0675234 0.334619 0)
(-0.0729848 0.344336 0)
(-0.0442345 0.301597 0)
(0.00138157 0.244065 0)
(0.049957 0.187499 0)
(0.0935537 0.137091 0)
(0.128143 0.093235 0)
(0.151914 0.0544919 0)
(0.164163 0.0188759 0)
(0.164654 -0.0157176 0)
(0.153329 -0.0514192 0)
(0.130308 -0.0903811 0)
(0.0961686 -0.134685 0)
(0.0526013 -0.185906 0)
(0.00356252 -0.243791 0)
(-0.0429524 -0.30317 0)
(-0.0727806 -0.347956 0)
(-0.0680559 -0.339494 0)
(-0.0266354 -0.196093 0)
(-0.0286607 0.250696 0)
(-0.0578518 0.35054 0)
(-0.0142427 0.309409 0)
(0.0628902 0.24237 0)
(0.142524 0.180394 0)
(0.212297 0.130074 0)
(0.268092 0.0907783 0)
(0.309153 0.0597737 0)
(0.336056 0.0342328 0)
(0.349583 0.0117474 0)
(0.3502 -0.00975087 0)
(0.337874 -0.0322192 0)
(0.31207 -0.0577572 0)
(0.2719 -0.0888456 0)
(0.21664 -0.128442 0)
(0.146871 -0.179478 0)
(0.0665743 -0.242791 0)
(-0.0118926 -0.311758 0)
(-0.057068 -0.354665 0)
(-0.0285025 -0.254248 0)
(0.0138341 0.2888 0)
(0.0301288 0.302649 0)
(0.153657 0.214044 0)
(0.282256 0.142411 0)
(0.382467 0.0940656 0)
(0.456693 0.0620897 0)
(0.510148 0.0406674 0)
(0.546833 0.025648 0)
(0.569804 0.0142929 0)
(0.581061 0.00481537 0)
(0.58157 -0.0040704 0)
(0.571335 -0.0134998 0)
(0.549392 -0.0247644 0)
(0.513707 -0.0396702 0)
(0.461137 -0.061012 0)
(0.387512 -0.0930793 0)
(0.287369 -0.141942 0)
(0.157962 -0.214728 0)
(0.0328206 -0.304742 0)
(0.0151442 -0.291066 0)
(0.304806 0.147146 0)
(0.406021 0.127687 0)
(0.569196 0.0748001 0)
(0.685788 0.0419034 0)
(0.753282 0.0239111 0)
(0.794414 0.0139864 0)
(0.820752 0.00833918 0)
(0.837495 0.00491705 0)
(0.847468 0.00261867 0)
(0.852203 0.000846156 0)
(0.852363 -0.000766403 0)
(0.847963 -0.00251786 0)
(0.838369 -0.0047699 0)
(0.822079 -0.00811275 0)
(0.79628 -0.0136425 0)
(0.755757 -0.0234299 0)
(0.68888 -0.0413438 0)
(0.57252 -0.0743708 0)
(0.408471 -0.127734 0)
(0.305965 -0.147572 0)
)
;

boundaryField
{
    movingWall
    {
        type            fixedValue;
        value           uniform (1 0 0);
    }
    fixedWalls
    {
        type            noSlip;
    }
    frontAndBack
    {
        type            empty;
    }
}


// ************************************************************************* //
