/*--------------------------------*- C++ -*----------------------------------*\
  =========                 |
  \\      /  F ield         | OpenFOAM: The Open Source CFD Toolbox
   \\    /   O peration     | Website:  https://openfoam.org
    \\  /    A nd           | Version:  6
     \\/     M anipulation  |
\*---------------------------------------------------------------------------*/
FoamFile
{
    version     2.0;
    format      ascii;
    class       volScalarField;
    location    "0.085";
    object      p;
}
// * * * * * * * * * * * * * * * * * * * * * * * * * * * * * * * * * * * * * //

dimensions      [0 2 -2 0 0 0 0];

internalField   nonuniform List<scalar> 
400
(
1.5886e-05
-0.0347956
-0.0781512
-0.111608
-0.12414
-0.1108
-0.0712165
-0.00831491
0.0727286
0.165277
0.261853
0.354669
0.436148
0.49949
0.539355
0.552717
0.539962
0.506176
0.462597
0.427788
0.0345231
-0.00124546
-0.0352748
-0.0583552
-0.0650417
-0.0518568
-0.0183535
0.033356
0.0993441
0.174446
0.252753
0.328082
0.394442
0.446533
0.480285
0.493501
0.486633
0.463269
0.429045
0.393316
0.0803861
0.0308298
-0.00599973
-0.0273025
-0.0327455
-0.0204211
0.00963615
0.0553762
0.113355
0.179145
0.247706
0.313755
0.372159
0.418342
0.448705
0.461093
0.455464
0.433834
0.396753
0.347228
0.122667
0.0540964
0.00828384
-0.0160181
-0.0226554
-0.0111095
0.0178653
0.061842
0.11735
0.180183
0.245642
0.308822
0.364915
0.409523
0.438969
0.450677
0.443859
0.419142
0.372946
0.304318
0.151628
0.0629363
0.00635433
-0.0222351
-0.0302539
-0.0184196
0.0117182
0.0571568
0.114146
0.178422
0.245352
0.310126
0.367968
0.414364
0.445281
0.457493
0.449361
0.42027
0.363106
0.274156
0.160296
0.0510384
-0.0167882
-0.0495402
-0.0579121
-0.0438015
-0.00963516
0.0408526
0.103443
0.17362
0.246617
0.317518
0.38137
0.433326
0.468781
0.483662
0.475368
0.442066
0.373396
0.263518
0.142624
0.0121379
-0.0667581
-0.102483
-0.109081
-0.0897362
-0.0479007
0.011796
0.0845151
0.165352
0.249286
0.331171
0.405748
0.467679
0.511595
0.532371
0.526245
0.490021
0.409967
0.27829
0.0921356
-0.0606396
-0.149835
-0.186201
-0.187657
-0.159
-0.104957
-0.0312407
0.0565764
0.153142
0.253157
0.351225
0.441743
0.518798
0.576105
0.607243
0.606974
0.570352
0.479668
0.324879
0.000814526
-0.175704
-0.273659
-0.306896
-0.298293
-0.254858
-0.182972
-0.0896392
0.018765
0.13648
0.258019
0.37785
0.490106
0.588317
0.665174
0.712681
0.723669
0.690746
0.591028
0.411396
-0.141964
-0.343932
-0.447803
-0.472037
-0.446322
-0.380829
-0.284103
-0.164658
-0.0296479
0.114932
0.263662
0.411151
0.551522
0.677909
0.781962
0.853834
0.883812
0.860986
0.755264
0.548824
-0.350885
-0.579893
-0.684423
-0.690442
-0.63746
-0.540195
-0.409974
-0.256963
-0.08891
0.0883359
0.269895
0.451026
0.626321
0.788902
0.929555
1.03638
1.09641
1.09367
0.987598
0.752597
-0.647135
-0.903689
-0.99905
-0.972205
-0.877219
-0.735217
-0.560887
-0.365968
-0.15831
0.0570711
0.276604
0.496988
0.714084
0.921723
1.11035
1.26608
1.37201
1.40507
1.30921
1.04521
-1.06308
-1.34388
-1.41146
-1.32819
-1.16977
-0.965841
-0.734663
-0.48892
-0.235547
0.0223973
0.283788
0.547914
0.813078
1.07504
1.32499
1.54778
1.7223
1.81612
1.75026
1.46113
-1.65199
-1.94223
-1.94613
-1.76839
-1.51566
-1.22754
-0.924913
-0.619678
-0.315977
-0.0131894
0.291552
0.601621
0.919375
1.24433
1.57051
1.88335
2.15861
2.35291
2.3548
2.05682
-2.50793
-2.76062
-2.63059
-2.29739
-1.90716
-1.5076
-1.1185
-0.747165
-0.391796
-0.0456954
0.299885
0.654139
1.02543
1.41957
1.83677
2.26718
2.68743
3.04509
3.1877
2.93104
-3.80004
-3.88707
-3.48935
-2.90667
-2.32193
-1.78094
-1.29323
-0.854361
-0.451799
-0.0697949
0.308237
0.69895
1.1187
1.58266
2.10224
2.67991
3.30279
3.91969
4.34028
4.25901
-5.83246
-5.43572
-4.53244
-3.56807
-2.7203
-2.00973
-1.41903
-0.920093
-0.483063
-0.0799992
0.315007
0.727065
1.182
1.70749
2.33286
3.08518
3.97937
4.98926
5.92968
6.35123
-9.28488
-7.55097
-5.69686
-4.18852
-3.01863
-2.12956
-1.45169
-0.916894
-0.470844
-0.0715427
0.315977
0.724456
1.18888
1.75124
2.46588
3.40102
4.62561
6.19288
8.10495
9.89567
-15.9314
-10.3233
-6.56605
-4.38392
-2.94828
-1.96849
-1.28693
-0.78524
-0.385458
-0.0364877
0.299956
0.658459
1.07735
1.60781
2.32801
3.35756
4.85665
7.11561
10.9622
16.6723
-27.0777
-12.99
-6.27685
-3.58849
-2.19642
-1.36866
-0.848498
-0.48985
-0.212791
0.0269823
0.259097
0.509289
0.807137
1.19676
1.75776
2.63772
4.10083
6.88632
13.7135
27.916
)
;

boundaryField
{
    movingWall
    {
        type            zeroGradient;
    }
    fixedWalls
    {
        type            zeroGradient;
    }
    frontAndBack
    {
        type            empty;
    }
}


// ************************************************************************* //
