/*--------------------------------*- C++ -*----------------------------------*\
  =========                 |
  \\      /  F ield         | OpenFOAM: The Open Source CFD Toolbox
   \\    /   O peration     | Website:  https://openfoam.org
    \\  /    A nd           | Version:  6
     \\/     M anipulation  |
\*---------------------------------------------------------------------------*/
FoamFile
{
    version     2.0;
    format      ascii;
    class       surfaceScalarField;
    location    "0.085";
    object      phi;
}
// * * * * * * * * * * * * * * * * * * * * * * * * * * * * * * * * * * * * * //

dimensions      [0 3 -1 0 0 0 0];

internalField   nonuniform List<scalar> 
760
(
1.47903e-08
-1.48113e-08
-2.07591e-08
3.55496e-08
-1.12658e-07
9.18994e-08
-2.44706e-07
1.32048e-07
-3.96799e-07
1.52093e-07
-5.49569e-07
1.52769e-07
-6.86254e-07
1.36685e-07
-7.93568e-07
1.07314e-07
-8.61962e-07
6.83949e-08
-8.85662e-07
2.36998e-08
-8.6265e-07
-2.30118e-08
-7.94692e-07
-6.79573e-08
-6.87408e-07
-1.07285e-07
-5.50342e-07
-1.37066e-07
-3.96946e-07
-1.53396e-07
-2.44253e-07
-1.52693e-07
-1.11903e-07
-1.32349e-07
-2.01239e-08
-9.1779e-08
1.50387e-08
-3.51623e-08
1.50387e-08
-3.28957e-08
1.80843e-08
-1.77527e-07
1.8018e-07
-4.30942e-07
3.45315e-07
-7.63013e-07
4.64119e-07
-1.13359e-06
5.22675e-07
-1.50139e-06
5.20568e-07
-1.82904e-06
4.64331e-07
-2.08591e-06
3.6418e-07
-2.2495e-06
2.31984e-07
-2.30604e-06
8.02487e-08
-2.25077e-06
-7.82844e-08
-2.088e-06
-2.30728e-07
-1.83121e-06
-3.64079e-07
-1.50287e-06
-4.65399e-07
-1.13392e-06
-5.22352e-07
-7.62203e-07
-5.24408e-07
-4.29515e-07
-4.65037e-07
-1.76246e-07
-3.45048e-07
-3.23221e-08
-1.79087e-07
-1.72831e-08
-9.03959e-08
1.0848e-07
-3.53249e-07
4.43033e-07
-7.60959e-07
7.53025e-07
-1.26742e-06
9.70578e-07
-1.81751e-06
1.07276e-06
-2.35544e-06
1.0585e-06
-2.83061e-06
9.39509e-07
-3.20133e-06
7.34895e-07
-3.43678e-06
4.67436e-07
-3.51807e-06
1.61533e-07
-3.43862e-06
-1.57734e-07
-3.20439e-06
-4.64949e-07
-2.83391e-06
-7.34565e-07
-2.35791e-06
-9.41394e-07
-1.81846e-06
-1.06181e-06
-1.26676e-06
-1.0761e-06
-7.59295e-07
-9.72506e-07
-3.51581e-07
-7.52761e-07
-8.95811e-08
-4.41087e-07
-1.06864e-07
-1.4294e-07
2.51421e-07
-5.21528e-07
8.21621e-07
-1.07906e-06
1.31056e-06
-1.74923e-06
1.64075e-06
-2.46157e-06
1.78511e-06
-3.14814e-06
1.74506e-06
-3.74872e-06
1.54009e-06
-4.2143e-06
1.20048e-06
-4.50895e-06
7.62086e-07
-4.61069e-06
2.63266e-07
-4.51185e-06
-2.5657e-07
-4.21929e-06
-7.5751e-07
-3.75442e-06
-1.19944e-06
-3.15304e-06
-1.54278e-06
-2.46452e-06
-1.75032e-06
-1.74984e-06
-1.79078e-06
-1.07789e-06
-1.64446e-06
-5.19814e-07
-1.31083e-06
-1.4196e-07
-8.18941e-07
-2.48824e-07
-1.91316e-07
4.42737e-07
-6.82473e-07
1.31278e-06
-1.38726e-06
2.01535e-06
-2.21645e-06
2.46993e-06
-3.08287e-06
2.65152e-06
-3.90689e-06
2.56909e-06
-4.62057e-06
2.25377e-06
-5.17001e-06
1.74992e-06
-5.5164e-06
1.10847e-06
-5.63623e-06
3.83103e-07
-5.52129e-06
-3.71513e-07
-5.17866e-06
-1.10014e-06
-4.63099e-06
-1.74711e-06
-3.91678e-06
-2.25699e-06
-3.09026e-06
-2.57684e-06
-2.22034e-06
-2.6607e-06
-1.38794e-06
-2.47686e-06
-6.81398e-07
-2.01738e-06
-1.90346e-07
-1.30999e-06
-4.3917e-07
-2.38445e-07
6.81183e-07
-8.42004e-07
1.91634e-06
-1.69431e-06
2.86765e-06
-2.68104e-06
3.45667e-06
-3.69698e-06
3.66747e-06
-4.65103e-06
3.52313e-06
-5.46889e-06
3.07164e-06
-6.09389e-06
2.37491e-06
-6.48635e-06
1.50094e-06
-6.62268e-06
5.19431e-07
-6.49453e-06
-4.99666e-07
-6.10862e-06
-1.48605e-06
-5.48729e-06
-2.36844e-06
-4.66958e-06
-3.07469e-06
-3.71245e-06
-3.53397e-06
-2.6913e-06
-3.68184e-06
-1.69904e-06
-3.46913e-06
-8.42736e-07
-2.87368e-06
-2.37824e-07
-1.91491e-06
-6.76994e-07
-2.87348e-07
9.68531e-07
-1.00705e-06
2.63604e-06
-2.00981e-06
3.87041e-06
-3.15363e-06
4.60049e-06
-4.31416e-06
4.828e-06
-5.38948e-06
4.59845e-06
-6.30099e-06
3.98315e-06
-6.99175e-06
3.06567e-06
-7.42362e-06
1.93281e-06
-7.57454e-06
6.70351e-07
-7.43659e-06
-6.37619e-07
-7.01544e-06
-1.9072e-06
-6.33134e-06
-3.05254e-06
-5.42132e-06
-3.98471e-06
-4.34239e-06
-4.61291e-06
-3.17441e-06
-4.84983e-06
-2.02165e-06
-4.62189e-06
-1.01131e-06
-3.88402e-06
-2.87612e-07
-2.63861e-06
-9.64606e-07
-3.40865e-07
1.30939e-06
-1.18417e-06
3.47934e-06
-2.34182e-06
5.02806e-06
-3.64055e-06
5.89922e-06
-4.93621e-06
6.12365e-06
-6.11794e-06
5.78018e-06
-7.10619e-06
4.9714e-06
-7.84748e-06
3.80697e-06
-8.3085e-06
2.39382e-06
-8.47085e-06
8.32705e-07
-8.32778e-06
-7.80689e-07
-7.88311e-06
-2.35187e-06
-7.15269e-06
-3.78296e-06
-6.16817e-06
-4.96923e-06
-4.98262e-06
-5.79846e-06
-3.67687e-06
-6.15558e-06
-2.36468e-06
-5.93407e-06
-1.19426e-06
-5.05444e-06
-3.42772e-07
-3.49009e-06
-1.30738e-06
-4.01803e-07
1.7112e-06
-1.3793e-06
4.45684e-06
-2.69577e-06
6.34453e-06
-4.14173e-06
7.34518e-06
-5.55354e-06
7.53547e-06
-6.81533e-06
7.04197e-06
-7.85207e-06
6.00813e-06
-8.61932e-06
4.57421e-06
-9.09302e-06
2.86753e-06
-9.26137e-06
1.00106e-06
-9.11979e-06
-9.22273e-07
-8.66927e-06
-2.80239e-06
-7.91836e-06
-4.53387e-06
-6.88868e-06
-5.99891e-06
-5.62358e-06
-7.06356e-06
-4.199e-06
-7.58016e-06
-2.73414e-06
-7.39893e-06
-1.39804e-06
-6.39054e-06
-4.06344e-07
-4.48179e-06
-1.71372e-06
-4.73503e-07
2.1847e-06
-1.59834e-06
5.58168e-06
-3.07392e-06
7.82011e-06
-4.64855e-06
8.91981e-06
-6.14152e-06
9.02844e-06
-7.43904e-06
8.33949e-06
-8.47918e-06
7.04827e-06
-9.23427e-06
5.32931e-06
-9.69543e-06
3.32868e-06
-9.86103e-06
1.16666e-06
-9.72995e-06
-1.05335e-06
-9.29935e-06
-3.23299e-06
-8.56699e-06
-5.26622e-06
-7.53848e-06
-7.02741e-06
-6.23938e-06
-8.36266e-06
-4.73169e-06
-9.08785e-06
-3.1324e-06
-8.99823e-06
-1.62891e-06
-7.89403e-06
-4.81884e-07
-5.62881e-06
-2.19561e-06
-5.60857e-07
2.74556e-06
-1.84816e-06
6.86898e-06
-3.47465e-06
9.4466e-06
-5.14059e-06
1.05857e-05
-6.65487e-06
1.05427e-05
-7.91801e-06
9.60264e-06
-8.89365e-06
8.02391e-06
-9.58098e-06
6.01665e-06
-9.99323e-06
3.74092e-06
-1.0143e-05
1.31645e-06
-1.00342e-05
-1.16218e-06
-9.65904e-06
-3.60813e-06
-9.00096e-06
-5.92431e-06
-8.04266e-06
-7.98571e-06
-6.7815e-06
-9.62382e-06
-5.25237e-06
-1.0617e-05
-3.55694e-06
-1.06936e-05
-1.89367e-06
-9.5573e-06
-5.7445e-07
-6.94803e-06
-2.77006e-06
-6.72011e-07
3.41757e-06
-2.13764e-06
8.33461e-06
-3.89007e-06
1.1199e-05
-5.57908e-06
1.22748e-05
-7.01841e-06
1.1982e-05
-8.14255e-06
1.07268e-05
-8.95752e-06
8.83888e-06
-9.50113e-06
6.56026e-06
-9.81571e-06
4.0555e-06
-9.93174e-06
1.43248e-06
-9.85936e-06
-1.23457e-06
-9.58555e-06
-3.88194e-06
-9.07634e-06
-6.43352e-06
-8.28498e-06
-8.77707e-06
-7.16875e-06
-1.074e-05
-5.71777e-06
-1.2068e-05
-3.99739e-06
-1.2414e-05
-2.20048e-06
-1.13542e-05
-6.92239e-07
-8.45627e-06
-3.4623e-06
-8.21116e-07
4.23869e-06
-2.47772e-06
9.99122e-06
-4.29903e-06
1.30203e-05
-5.89386e-06
1.38696e-05
-7.11125e-06
1.31994e-05
-7.94914e-06
1.15647e-05
-8.47634e-06
9.36608e-06
-8.78033e-06
6.86425e-06
-8.9373e-06
4.21246e-06
-8.99714e-06
1.49232e-06
-8.97693e-06
-1.25477e-06
-8.85875e-06
-4.00012e-06
-8.59069e-06
-6.70158e-06
-8.09256e-06
-9.2752e-06
-7.27086e-06
-1.15617e-05
-6.04994e-06
-1.32889e-05
-4.42762e-06
-1.40364e-05
-2.5583e-06
-1.32235e-05
-8.49221e-07
-1.01653e-05
-4.31152e-06
-1.03216e-06
5.27084e-06
-2.87691e-06
1.1836e-05
-4.64927e-06
1.47927e-05
-5.95697e-06
1.51773e-05
-6.73971e-06
1.39822e-05
-7.09844e-06
1.19234e-05
-7.18443e-06
9.45207e-06
-7.14027e-06
6.82009e-06
-7.0745e-06
4.1467e-06
-7.05361e-06
1.47143e-06
-7.10059e-06
-1.20779e-06
-7.19456e-06
-3.90615e-06
-7.26961e-06
-6.62653e-06
-7.21491e-06
-9.3299e-06
-6.88173e-06
-1.18949e-05
-6.10929e-06
-1.40613e-05
-4.78685e-06
-1.53588e-05
-2.97155e-06
-1.50388e-05
-1.06872e-06
-1.20682e-05
-5.38024e-06
-1.34097e-06
6.61181e-06
-3.32076e-06
1.38158e-05
-4.81349e-06
1.62854e-05
-5.53128e-06
1.58951e-05
-5.59312e-06
1.4044e-05
-5.24535e-06
1.15756e-05
-4.72999e-06
8.93671e-06
-4.23595e-06
6.32605e-06
-3.89102e-06
3.80177e-06
-3.76818e-06
1.34859e-06
-3.89276e-06
-1.08321e-06
-4.24483e-06
-3.55409e-06
-4.75533e-06
-6.11603e-06
-5.2973e-06
-8.78794e-06
-5.67765e-06
-1.15146e-05
-5.64404e-06
-1.40949e-05
-4.93492e-06
-1.60679e-05
-3.41819e-06
-1.65556e-05
-1.38477e-06
-1.41016e-05
-6.76501e-06
-1.77966e-06
8.39147e-06
-3.70221e-06
1.57383e-05
-4.48844e-06
1.70717e-05
-4.17614e-06
1.55828e-05
-3.17749e-06
1.30454e-05
-1.90468e-06
1.03028e-05
-6.67125e-07
7.69915e-06
3.34285e-07
5.32464e-06
9.8196e-07
3.15409e-06
1.21516e-06
1.11539e-06
1.01289e-06
-8.80938e-07
3.88372e-07
-2.92957e-06
-6.04643e-07
-5.12301e-06
-1.85343e-06
-7.53915e-06
-3.15751e-06
-1.02105e-05
-4.20021e-06
-1.30522e-05
-4.55228e-06
-1.57158e-05
-3.77808e-06
-1.73298e-05
-1.82482e-06
-1.60549e-05
-8.58983e-06
-2.29675e-06
1.06882e-05
-3.62678e-06
1.70683e-05
-2.98238e-06
1.64273e-05
-1.09028e-06
1.36907e-05
1.26885e-06
1.06862e-05
3.57418e-06
7.99749e-06
5.53126e-06
5.74207e-06
6.99473e-06
3.86117e-06
7.90164e-06
2.24718e-06
8.22785e-06
7.89182e-07
7.96511e-06
-6.182e-07
7.11395e-06
-2.07841e-06
5.69042e-06
-3.69947e-06
3.7492e-06
-5.59793e-06
1.42907e-06
-7.89036e-06
-9.76293e-07
-1.06469e-05
-2.93476e-06
-1.37574e-05
-3.63873e-06
-1.66258e-05
-2.32672e-06
-1.73669e-05
-1.09165e-05
-2.50251e-06
1.31907e-05
-1.93608e-06
1.65019e-05
1.19332e-06
1.32979e-05
5.11739e-06
9.76662e-06
8.85293e-06
6.95069e-06
1.19939e-05
4.85651e-06
1.44176e-05
3.31837e-06
1.61218e-05
2.15701e-06
1.71403e-05
1.22867e-06
1.75034e-05
4.26026e-07
1.72214e-05
-3.36204e-07
1.62796e-05
-1.13658e-06
1.46418e-05
-2.06164e-06
1.22656e-05
-3.2218e-06
9.14242e-06
-4.76714e-06
5.38393e-06
-6.88838e-06
1.39311e-06
-9.76655e-06
-1.83165e-06
-1.34011e-05
-2.48282e-06
-1.67157e-05
-1.33994e-05
-5.77734e-07
1.37685e-05
4.63786e-06
1.12863e-05
1.10743e-05
6.86146e-06
1.66513e-05
4.1896e-06
2.09803e-05
2.62168e-06
2.41683e-05
1.6685e-06
2.64192e-05
1.06747e-06
2.79121e-05
6.6408e-07
2.87731e-05
3.67699e-07
2.90748e-05
1.24296e-07
2.88411e-05
-1.02501e-07
2.80485e-05
-3.43922e-07
2.66232e-05
-6.36338e-07
2.44354e-05
-1.03403e-06
2.12973e-05
-1.62901e-06
1.69898e-05
-2.58086e-06
1.13879e-05
-4.16472e-06
4.87116e-06
-6.88427e-06
-4.6914e-07
-1.13754e-05
-1.38685e-05
1.37685e-05
2.50548e-05
3.19162e-05
3.61058e-05
3.87275e-05
4.0396e-05
4.14635e-05
4.21276e-05
4.24953e-05
4.26196e-05
4.25171e-05
4.21731e-05
4.15368e-05
4.05028e-05
3.88738e-05
3.62929e-05
3.21282e-05
2.52439e-05
1.38685e-05
)
;

boundaryField
{
    movingWall
    {
        type            calculated;
        value           uniform 0;
    }
    fixedWalls
    {
        type            calculated;
        value           uniform 0;
    }
    frontAndBack
    {
        type            empty;
        value           nonuniform 0();
    }
}


// ************************************************************************* //
