/*--------------------------------*- C++ -*----------------------------------*\
  =========                 |
  \\      /  F ield         | OpenFOAM: The Open Source CFD Toolbox
   \\    /   O peration     | Website:  https://openfoam.org
    \\  /    A nd           | Version:  6
     \\/     M anipulation  |
\*---------------------------------------------------------------------------*/
FoamFile
{
    version     2.0;
    format      ascii;
    class       surfaceScalarField;
    location    "0.06";
    object      phi;
}
// * * * * * * * * * * * * * * * * * * * * * * * * * * * * * * * * * * * * * //

dimensions      [0 3 -1 0 0 0 0];

internalField   nonuniform List<scalar> 
760
(
1.4815e-08
-1.48367e-08
-2.06873e-08
3.55023e-08
-1.12569e-07
9.1882e-08
-2.44652e-07
1.32083e-07
-3.96818e-07
1.52166e-07
-5.49663e-07
1.52845e-07
-6.86394e-07
1.3673e-07
-7.93702e-07
1.07308e-07
-8.6204e-07
6.83384e-08
-8.85653e-07
2.3613e-08
-8.62556e-07
-2.30972e-08
-7.94545e-07
-6.80103e-08
-6.87259e-07
-1.07286e-07
-5.50243e-07
-1.37016e-07
-3.96928e-07
-1.53316e-07
-2.44312e-07
-1.52616e-07
-1.12002e-07
-1.3231e-07
-2.02097e-08
-9.17926e-08
1.5004e-08
-3.52135e-08
1.50043e-08
-3.28254e-08
1.79887e-08
-1.77369e-07
1.80046e-07
-4.30767e-07
3.4528e-07
-7.62912e-07
4.64228e-07
-1.13363e-06
5.22883e-07
-1.50157e-06
5.20782e-07
-1.82929e-06
4.64455e-07
-2.08614e-06
3.64159e-07
-2.24962e-06
2.31822e-07
-2.30601e-06
8.00008e-08
-2.25058e-06
-7.85284e-08
-2.08771e-06
-2.30879e-07
-1.83091e-06
-3.64084e-07
-1.50267e-06
-4.65256e-07
-1.13387e-06
-5.22119e-07
-7.62303e-07
-5.24184e-07
-4.29696e-07
-4.64918e-07
-1.76408e-07
-3.45081e-07
-3.23938e-08
-1.79228e-07
-1.73892e-08
-9.02924e-08
1.08281e-07
-3.5304e-07
4.42794e-07
-7.6075e-07
7.52989e-07
-1.26733e-06
9.70807e-07
-1.81761e-06
1.07316e-06
-2.35572e-06
1.05889e-06
-2.83099e-06
9.39726e-07
-3.20167e-06
7.34839e-07
-3.43696e-06
4.67115e-07
-3.51802e-06
1.61054e-07
-3.43834e-06
-1.58206e-07
-3.20397e-06
-4.6525e-07
-2.83346e-06
-7.34591e-07
-2.35758e-06
-9.4114e-07
-1.81832e-06
-1.06137e-06
-1.26684e-06
-1.07567e-06
-7.595e-07
-9.72255e-07
-3.51789e-07
-7.52792e-07
-8.96805e-08
-4.41336e-07
-1.0707e-07
-1.42817e-07
2.51098e-07
-5.21312e-07
8.21289e-07
-1.07891e-06
1.31059e-06
-1.74929e-06
1.64119e-06
-2.46191e-06
1.78579e-06
-3.14871e-06
1.74569e-06
-3.74938e-06
1.5404e-06
-4.21487e-06
1.20033e-06
-4.50925e-06
7.61499e-07
-4.61062e-06
2.62424e-07
-4.51143e-06
-2.57402e-07
-4.21861e-06
-7.58067e-07
-3.75365e-06
-1.19954e-06
-3.15238e-06
-1.54241e-06
-2.46412e-06
-1.74963e-06
-1.74975e-06
-1.79004e-06
-1.07803e-06
-1.64398e-06
-5.20025e-07
-1.31079e-06
-1.42081e-07
-8.1928e-07
-2.49151e-07
-1.91194e-07
4.42292e-07
-6.82333e-07
1.31243e-06
-1.38733e-06
2.01558e-06
-2.21691e-06
2.47077e-06
-3.08375e-06
2.65263e-06
-3.90807e-06
2.57001e-06
-4.6218e-06
2.25413e-06
-5.17101e-06
1.74954e-06
-5.51693e-06
1.10741e-06
-5.63615e-06
3.81648e-07
-5.5206e-06
-3.72955e-07
-5.1775e-06
-1.10116e-06
-4.62962e-06
-1.74743e-06
-3.91549e-06
-2.25655e-06
-3.08929e-06
-2.57583e-06
-2.21983e-06
-2.65951e-06
-1.38784e-06
-2.47596e-06
-6.81527e-07
-2.01711e-06
-1.90466e-07
-1.31034e-06
-4.39617e-07
-2.38366e-07
6.80658e-07
-8.42086e-07
1.91615e-06
-1.69487e-06
2.86837e-06
-2.68228e-06
3.45817e-06
-3.69885e-06
3.6692e-06
-4.65327e-06
3.52442e-06
-5.47111e-06
3.07197e-06
-6.09564e-06
2.37407e-06
-6.48728e-06
1.49905e-06
-6.62258e-06
5.16953e-07
-6.49341e-06
-5.02129e-07
-6.10668e-06
-1.48789e-06
-5.4849e-06
-2.36921e-06
-4.66719e-06
-3.07426e-06
-3.71045e-06
-3.53256e-06
-2.68998e-06
-3.67998e-06
-1.69842e-06
-3.46752e-06
-8.42635e-07
-2.87289e-06
-2.379e-07
-1.91508e-06
-6.77517e-07
-2.87378e-07
9.68036e-07
-1.00757e-06
2.63634e-06
-2.01125e-06
3.87205e-06
-3.15617e-06
4.60309e-06
-4.31761e-06
4.83064e-06
-5.39336e-06
4.60018e-06
-6.30468e-06
3.98329e-06
-6.9946e-06
3.06399e-06
-7.42514e-06
1.92959e-06
-7.57444e-06
6.66253e-07
-7.43486e-06
-6.41703e-07
-7.01238e-06
-1.91038e-06
-6.32744e-06
-3.05415e-06
-5.41724e-06
-3.98445e-06
-4.33878e-06
-4.61103e-06
-3.17175e-06
-4.84701e-06
-2.02013e-06
-4.61914e-06
-1.01076e-06
-3.88226e-06
-2.87576e-07
-2.63826e-06
-9.65092e-07
-3.41098e-07
1.30913e-06
-1.1854e-06
3.48064e-06
-2.34462e-06
5.03127e-06
-3.645e-06
5.90347e-06
-4.9419e-06
6.12754e-06
-6.12411e-06
5.78239e-06
-7.11189e-06
4.97107e-06
-7.85183e-06
3.80394e-06
-8.31081e-06
2.38857e-06
-8.47076e-06
8.26199e-07
-8.32528e-06
-7.87187e-07
-7.87856e-06
-2.3571e-06
-7.14677e-06
-3.78594e-06
-6.16178e-06
-4.96944e-06
-4.97671e-06
-5.79609e-06
-3.67224e-06
-6.15149e-06
-2.36176e-06
-5.92961e-06
-1.19297e-06
-5.05106e-06
-3.42529e-07
-3.4887e-06
-1.30762e-06
-4.02362e-07
1.7115e-06
-1.3816e-06
4.45988e-06
-2.70049e-06
6.35016e-06
-4.14877e-06
7.35176e-06
-5.56217e-06
7.54094e-06
-6.82438e-06
7.0446e-06
-7.86026e-06
6.00695e-06
-8.62548e-06
4.56917e-06
-9.09631e-06
2.85939e-06
-9.26132e-06
9.91215e-07
-9.11639e-06
-9.32126e-07
-8.66295e-06
-2.81053e-06
-7.90998e-06
-4.5389e-06
-6.8794e-06
-6.00003e-06
-5.6147e-06
-7.06078e-06
-4.19173e-06
-7.57446e-06
-2.72927e-06
-7.39208e-06
-1.39566e-06
-6.38466e-06
-4.05769e-07
-4.47859e-06
-1.71339e-06
-4.74539e-07
2.18604e-06
-1.60211e-06
5.58745e-06
-3.08112e-06
7.82917e-06
-4.65881e-06
8.92945e-06
-6.15362e-06
9.03575e-06
-7.45137e-06
8.34234e-06
-8.49009e-06
7.04567e-06
-9.24239e-06
5.32147e-06
-9.69976e-06
3.31675e-06
-9.86105e-06
1.15251e-06
-9.72565e-06
-1.06752e-06
-9.2912e-06
-3.24499e-06
-8.55595e-06
-5.27415e-06
-7.52595e-06
-7.03003e-06
-6.22702e-06
-8.35972e-06
-4.72116e-06
-9.08031e-06
-3.12498e-06
-8.98826e-06
-1.62503e-06
-7.88461e-06
-4.80825e-07
-5.6228e-06
-2.19421e-06
-5.6254e-07
2.74857e-06
-1.85378e-06
6.87869e-06
-3.48482e-06
9.46021e-06
-5.15442e-06
1.05991e-05
-6.67059e-06
1.05519e-05
-7.93354e-06
9.6053e-06
-8.90708e-06
8.01921e-06
-9.59083e-06
6.00521e-06
-9.99848e-06
3.72441e-06
-1.01432e-05
1.2972e-06
-1.00292e-05
-1.1815e-06
-9.64937e-06
-3.62481e-06
-8.98757e-06
-5.93595e-06
-8.02703e-06
-7.99057e-06
-6.76556e-06
-9.62118e-06
-5.23826e-06
-1.06076e-05
-3.54653e-06
-1.068e-05
-1.88791e-06
-9.54324e-06
-5.72735e-07
-6.93797e-06
-2.76695e-06
-6.74518e-07
3.42309e-06
-2.1454e-06
8.34957e-06
-3.90335e-06
1.12182e-05
-5.5963e-06
1.2292e-05
-7.03716e-06
1.19928e-05
-8.1604e-06
1.07285e-05
-8.97252e-06
8.83133e-06
-9.51191e-06
6.5446e-06
-9.82144e-06
4.03394e-06
-9.93203e-06
1.40779e-06
-9.85418e-06
-1.25935e-06
-9.57523e-06
-3.90376e-06
-9.06164e-06
-6.44954e-06
-8.26723e-06
-8.78498e-06
-7.14992e-06
-1.07385e-05
-5.70033e-06
-1.20572e-05
-3.98384e-06
-1.23965e-05
-2.19253e-06
-1.13346e-05
-6.89689e-07
-8.44081e-06
-3.45664e-06
-8.24604e-07
4.2477e-06
-2.4877e-06
1.00127e-05
-4.31499e-06
1.30455e-05
-5.91332e-06
1.38903e-05
-7.13127e-06
1.32107e-05
-7.96726e-06
1.15645e-05
-8.49094e-06
9.35501e-06
-8.79052e-06
6.84417e-06
-8.94267e-06
4.1861e-06
-8.99758e-06
1.46269e-06
-8.9724e-06
-1.28452e-06
-8.84933e-06
-4.02683e-06
-8.5767e-06
-6.72217e-06
-8.07484e-06
-9.28684e-06
-7.25098e-06
-1.15623e-05
-6.03039e-06
-1.32778e-05
-4.41144e-06
-1.40154e-05
-2.54813e-06
-1.31979e-05
-8.45683e-07
-1.01433e-05
-4.30232e-06
-1.0367e-06
5.2844e-06
-2.88865e-06
1.18646e-05
-4.66641e-06
1.48232e-05
-5.97608e-06
1.52e-05
-6.75769e-06
1.39923e-05
-7.11336e-06
1.19202e-05
-7.19552e-06
9.43717e-06
-7.14755e-06
6.7962e-06
-7.07827e-06
4.11682e-06
-7.05412e-06
1.43854e-06
-7.09784e-06
-1.2408e-06
-7.18827e-06
-3.93641e-06
-7.25941e-06
-6.65102e-06
-7.20072e-06
-9.34554e-06
-6.86421e-06
-1.18988e-05
-6.09033e-06
-1.40517e-05
-4.76961e-06
-1.53361e-05
-2.95963e-06
-1.50078e-05
-1.06413e-06
-1.20388e-05
-5.36645e-06
-1.34644e-06
6.63084e-06
-3.3329e-06
1.38511e-05
-4.82873e-06
1.63191e-05
-5.54562e-06
1.59169e-05
-5.60408e-06
1.40508e-05
-5.25233e-06
1.15684e-05
-4.73367e-06
8.91851e-06
-4.23755e-06
6.30008e-06
-3.8917e-06
3.77097e-06
-3.76863e-06
1.31547e-06
-3.89301e-06
-1.11643e-06
-4.24421e-06
-3.58521e-06
-4.75268e-06
-6.14256e-06
-5.2913e-06
-8.80692e-06
-5.66749e-06
-1.15227e-05
-5.6302e-06
-1.4089e-05
-4.91982e-06
-1.60465e-05
-3.40598e-06
-1.65217e-05
-1.37929e-06
-1.40654e-05
-6.74574e-06
-1.78533e-06
8.41617e-06
-3.71175e-06
1.57775e-05
-4.49664e-06
1.7104e-05
-4.17955e-06
1.55998e-05
-3.17549e-06
1.30467e-05
-1.89876e-06
1.02917e-05
-6.59718e-07
7.67947e-06
3.40743e-07
5.29962e-06
9.85603e-07
3.12612e-06
1.21496e-06
1.08611e-06
1.0088e-06
-9.10266e-07
3.81312e-07
-2.95772e-06
-6.12854e-07
-5.14839e-06
-1.86032e-06
-7.55945e-06
-3.16051e-06
-1.02225e-05
-4.19762e-06
-1.30519e-05
-4.54454e-06
-1.56996e-05
-3.76866e-06
-1.72976e-05
-1.8192e-06
-1.60149e-05
-8.56494e-06
-2.30055e-06
1.07167e-05
-3.62845e-06
1.71054e-05
-2.97678e-06
1.64523e-05
-1.07648e-06
1.36995e-05
1.28848e-06
1.06818e-05
3.59579e-06
7.9844e-06
5.55106e-06
5.7242e-06
7.0097e-06
3.84099e-06
7.90975e-06
2.22607e-06
8.22806e-06
7.67798e-07
7.95735e-06
-6.39561e-07
7.09912e-06
-2.09949e-06
5.67044e-06
-3.71971e-06
3.72707e-06
-5.61608e-06
1.40864e-06
-7.90404e-06
-9.90988e-07
-1.06522e-05
-2.94108e-06
-1.37495e-05
-3.63742e-06
-1.66012e-05
-2.32304e-06
-1.73293e-05
-1.0888e-05
-2.50005e-06
1.32168e-05
-1.92315e-06
1.65285e-05
1.21805e-06
1.33111e-05
5.15051e-06
9.76703e-06
8.88909e-06
6.94319e-06
1.20281e-05
4.84544e-06
1.4446e-05
3.30627e-06
1.6142e-05
2.145e-06
1.7151e-05
1.21707e-06
1.7504e-05
4.14765e-07
1.72118e-05
-3.47401e-07
1.62604e-05
-1.14801e-06
1.46141e-05
-2.07347e-06
1.22319e-05
-3.23383e-06
9.10623e-06
-4.7784e-06
5.35043e-06
-6.89644e-06
1.3679e-06
-9.76697e-06
-1.84483e-06
-1.33885e-05
-2.48529e-06
-1.66888e-05
-1.33733e-05
-5.63818e-07
1.37806e-05
4.66721e-06
1.12975e-05
1.11136e-05
6.86468e-06
1.66939e-05
4.18675e-06
2.10204e-05
2.61669e-06
2.42023e-05
1.66357e-06
2.64453e-05
1.06322e-06
2.79298e-05
6.60533e-07
2.87822e-05
3.64668e-07
2.90754e-05
1.21549e-07
2.88332e-05
-1.05206e-07
2.8032e-05
-3.46836e-07
2.65983e-05
-6.39726e-07
2.44026e-05
-1.03814e-06
2.12581e-05
-1.63394e-06
1.69478e-05
-2.58607e-06
1.13489e-05
-4.16809e-06
4.84219e-06
-6.88179e-06
-4.82362e-07
-1.13643e-05
-1.38556e-05
1.37806e-05
2.5078e-05
3.19427e-05
3.61295e-05
3.87462e-05
4.04097e-05
4.1473e-05
4.21335e-05
4.24982e-05
4.26197e-05
4.25145e-05
4.21677e-05
4.15279e-05
4.04898e-05
3.88559e-05
3.62698e-05
3.21017e-05
2.52199e-05
1.38556e-05
)
;

boundaryField
{
    movingWall
    {
        type            calculated;
        value           uniform 0;
    }
    fixedWalls
    {
        type            calculated;
        value           uniform 0;
    }
    frontAndBack
    {
        type            empty;
        value           nonuniform 0();
    }
}


// ************************************************************************* //
