/*--------------------------------*- C++ -*----------------------------------*\
  =========                 |
  \\      /  F ield         | OpenFOAM: The Open Source CFD Toolbox
   \\    /   O peration     | Website:  https://openfoam.org
    \\  /    A nd           | Version:  6
     \\/     M anipulation  |
\*---------------------------------------------------------------------------*/
FoamFile
{
    version     2.0;
    format      ascii;
    class       volVectorField;
    location    "0.06";
    object      U;
}
// * * * * * * * * * * * * * * * * * * * * * * * * * * * * * * * * * * * * * //

dimensions      [0 1 -1 0 0 0 0];

internalField   nonuniform List<vector> 
400
(
(0.000257741 -0.00025408 0)
(0.000161309 0.000105167 0)
(-0.00114236 0.000564978 0)
(-0.00345254 0.000894697 0)
(-0.00637496 0.00106169 0)
(-0.00950088 0.00107773 0)
(-0.0124612 0.000967564 0)
(-0.0149513 0.000760136 0)
(-0.0167413 0.000484334 0)
(-0.0176779 0.000167785 0)
(-0.0176834 -0.000162842 0)
(-0.0167558 -0.000481022 0)
(-0.0149695 -0.000759489 0)
(-0.0124765 -0.000969608 0)
(-0.00950808 -0.00108141 0)
(-0.00637222 -0.00106524 0)
(-0.00344251 -0.000896362 0)
(-0.00113103 -0.000563982 0)
(0.000168339 -0.00010257 0)
(0.000259657 0.000255497 0)
(-6.59486e-05 -0.000191184 0)
(-0.00156716 0.00161361 0)
(-0.00562343 0.00361242 0)
(-0.0116642 0.00506688 0)
(-0.0188886 0.00579997 0)
(-0.0264612 0.00581698 0)
(-0.0335793 0.00520396 0)
(-0.0395512 0.00408602 0)
(-0.0438404 0.00260319 0)
(-0.0460829 0.000899526 0)
(-0.0460932 -0.00088023 0)
(-0.0438677 -0.00259055 0)
(-0.0395857 -0.00408423 0)
(-0.0336087 -0.00521312 0)
(-0.0264755 -0.00583279 0)
(-0.0188841 -0.00581522 0)
(-0.0116453 -0.00507446 0)
(-0.00560099 -0.00360904 0)
(-0.00155227 -0.00160301 0)
(-6.15216e-05 0.000198305 0)
(-0.000511205 0.00103478 0)
(-0.00364989 0.0056642 0)
(-0.0105008 0.0102128 0)
(-0.019933 0.0134765 0)
(-0.0307802 0.015067 0)
(-0.0419238 0.0149576 0)
(-0.0522835 0.0133204 0)
(-0.06092 0.0104372 0)
(-0.0671005 0.00664224 0)
(-0.0703254 0.00229174 0)
(-0.0703402 -0.00225004 0)
(-0.06714 -0.00661504 0)
(-0.0609713 -0.0104337 0)
(-0.0523299 -0.0133411 0)
(-0.0419509 -0.0149933 0)
(-0.0307816 -0.015102 0)
(-0.0199128 -0.0134952 0)
(-0.0104727 -0.0102073 0)
(-0.00362953 -0.00564122 0)
(-0.000504718 -0.00101704 0)
(-0.000905455 0.00337747 0)
(-0.00562039 0.0121059 0)
(-0.0152191 0.0199193 0)
(-0.0278976 0.025332 0)
(-0.0420796 0.0278123 0)
(-0.0563891 0.0273404 0)
(-0.0695338 0.0242121 0)
(-0.080405 0.0189101 0)
(-0.0881457 0.0120126 0)
(-0.0921753 0.00414099 0)
(-0.0921985 -0.00406608 0)
(-0.0882086 -0.0119625 0)
(-0.0804902 -0.018901 0)
(-0.069618 -0.0242455 0)
(-0.0564507 -0.0274017 0)
(-0.0421061 -0.0278756 0)
(-0.0278903 -0.0253697 0)
(-0.0151932 -0.0199158 0)
(-0.00559714 -0.0120695 0)
(-0.000897135 -0.0033457 0)
(-0.00125355 0.00672437 0)
(-0.00747373 0.0208112 0)
(-0.0197768 0.032556 0)
(-0.0356396 0.0403527 0)
(-0.0530293 0.0436436 0)
(-0.0703042 0.0425018 0)
(-0.085987 0.0374119 0)
(-0.0988458 0.0291073 0)
(-0.10795 0.0184498 0)
(-0.112679 0.0063579 0)
(-0.112717 -0.00622833 0)
(-0.108057 -0.0183592 0)
(-0.0989963 -0.0290819 0)
(-0.0861468 -0.0374562 0)
(-0.0704393 -0.0425959 0)
(-0.0531155 -0.0437487 0)
(-0.0356711 -0.040425 0)
(-0.0197682 -0.0325667 0)
(-0.00745315 -0.0207661 0)
(-0.00124418 -0.00667705 0)
(-0.00158573 0.0110175 0)
(-0.00929852 0.031751 0)
(-0.0243188 0.0481256 0)
(-0.0433652 0.0585251 0)
(-0.0639063 0.0624971 0)
(-0.0840223 0.060324 0)
(-0.102069 0.0527706 0)
(-0.116731 0.0408853 0)
(-0.127047 0.0258535 0)
(-0.132394 0.00891171 0)
(-0.132458 -0.00868905 0)
(-0.127227 -0.0256899 0)
(-0.11699 -0.0408224 0)
(-0.102358 -0.0528193 0)
(-0.0842872 -0.0604597 0)
(-0.0641041 -0.0626652 0)
(-0.0434759 -0.0586592 0)
(-0.0243526 -0.0481751 0)
(-0.00929073 -0.0317118 0)
(-0.00157708 -0.0109568 0)
(-0.00193238 0.0162627 0)
(-0.0111971 0.0449664 0)
(-0.0290181 0.0666745 0)
(-0.0512861 0.0798552 0)
(-0.0749274 0.0843112 0)
(-0.0977405 0.0806814 0)
(-0.117945 0.0701272 0)
(-0.134191 0.0540894 0)
(-0.145542 0.034116 0)
(-0.151411 0.0117705 0)
(-0.151513 -0.0113949 0)
(-0.145828 -0.0338279 0)
(-0.134612 -0.0539534 0)
(-0.11843 -0.0701661 0)
(-0.0982072 -0.0808679 0)
(-0.075305 -0.0845723 0)
(-0.0515316 -0.0800937 0)
(-0.0291302 -0.0668055 0)
(-0.0112176 -0.0449626 0)
(-0.00192752 -0.0161973 0)
(-0.00232218 0.0225256 0)
(-0.0132691 0.0605748 0)
(-0.0340352 0.0882872 0)
(-0.0595634 0.104333 0)
(-0.0861867 0.108963 0)
(-0.11144 0.103359 0)
(-0.133464 0.0892263 0)
(-0.150952 0.0684837 0)
(-0.163065 0.0430756 0)
(-0.169312 0.014884 0)
(-0.169462 -0.014272 0)
(-0.163491 -0.0425898 0)
(-0.15159 -0.0682211 0)
(-0.134216 -0.0892298 0)
(-0.112189 -0.103603 0)
(-0.0868252 -0.109354 0)
(-0.060013 -0.104736 0)
(-0.0342729 -0.0885649 0)
(-0.0133396 -0.0606566 0)
(-0.00232569 -0.0224739 0)
(-0.00278517 0.0299286 0)
(-0.0156134 0.0787646 0)
(-0.0395067 0.113064 0)
(-0.0682746 0.131884 0)
(-0.0976029 0.136194 0)
(-0.124816 0.127972 0)
(-0.148085 0.109638 0)
(-0.166258 0.0836861 0)
(-0.1787 0.0524739 0)
(-0.185094 0.0181676 0)
(-0.185301 -0.0172141 0)
(-0.179294 -0.051696 0)
(-0.167158 -0.0832242 0)
(-0.149166 -0.109566 0)
(-0.125927 -0.128274 0)
(-0.0985869 -0.136759 0)
(-0.0690059 -0.132527 0)
(-0.0399265 -0.113579 0)
(-0.0157616 -0.079008 0)
(-0.00280339 -0.0299221 0)
(-0.0033605 0.0386543 0)
(-0.0183438 0.0997832 0)
(-0.0455483 0.14107 0)
(-0.077387 0.162279 0)
(-0.108859 0.165503 0)
(-0.137196 0.153846 0)
(-0.160769 0.130656 0)
(-0.178759 0.0990871 0)
(-0.190873 0.0619039 0)
(-0.19706 0.0214822 0)
(-0.197326 -0.0200694 0)
(-0.19164 -0.0607248 0)
(-0.179938 -0.0983359 0)
(-0.162215 -0.130449 0)
(-0.138722 -0.15419 0)
(-0.110259 -0.166279 0)
(-0.0784751 -0.16325 0)
(-0.0462114 -0.141938 0)
(-0.0186026 -0.100293 0)
(-0.00340172 -0.0387413 0)
(-0.00411055 0.048965 0)
(-0.0216171 0.123926 0)
(-0.0522633 0.17226 0)
(-0.0867167 0.195005 0)
(-0.119305 0.195985 0)
(-0.147398 0.179872 0)
(-0.169836 0.151174 0)
(-0.186365 0.113766 0)
(-0.197206 0.0707592 0)
(-0.202682 0.0246146 0)
(-0.202995 -0.02263 0)
(-0.198117 -0.0690695 0)
(-0.187788 -0.112626 0)
(-0.171621 -0.150756 0)
(-0.149339 -0.180223 0)
(-0.121151 -0.196993 0)
(-0.0882146 -0.19639 0)
(-0.0532259 -0.173615 0)
(-0.0220225 -0.124838 0)
(-0.00418515 -0.0492134 0)
(-0.0051461 0.0612499 0)
(-0.0256749 0.151521 0)
(-0.0597343 0.206356 0)
(-0.095834 0.229072 0)
(-0.127796 0.226136 0)
(-0.153535 0.20434 0)
(-0.172756 0.169573 0)
(-0.186061 0.126415 0)
(-0.194362 0.0781946 0)
(-0.198458 0.0272618 0)
(-0.198789 -0.0246282 0)
(-0.195336 -0.0759097 0)
(-0.187611 -0.124793 0)
(-0.174758 -0.168851 0)
(-0.15579 -0.20463 0)
(-0.130034 -0.227361 0)
(-0.0977416 -0.23093 0)
(-0.0610309 -0.208331 0)
(-0.0262619 -0.152993 0)
(-0.00526648 -0.0617496 0)
(-0.00667053 0.0761209 0)
(-0.0308975 0.182899 0)
(-0.0679592 0.242628 0)
(-0.103848 0.262715 0)
(-0.132373 0.253582 0)
(-0.152684 0.224756 0)
(-0.165871 0.183617 0)
(-0.173692 0.135307 0)
(-0.177895 0.0831178 0)
(-0.179799 0.0290271 0)
(-0.180096 -0.0257435 0)
(-0.178783 -0.0802148 0)
(-0.175148 -0.133144 0)
(-0.167831 -0.182498 0)
(-0.155008 -0.224877 0)
(-0.134816 -0.254945 0)
(-0.106066 -0.265045 0)
(-0.0695738 -0.245321 0)
(-0.0316907 -0.185095 0)
(-0.0068507 -0.0769831 0)
(-0.00904925 0.0945759 0)
(-0.0378367 0.218255 0)
(-0.0766158 0.279481 0)
(-0.108924 0.292949 0)
(-0.129702 0.274768 0)
(-0.140384 0.237696 0)
(-0.144024 0.190451 0)
(-0.143752 0.138349 0)
(-0.142155 0.0842498 0)
(-0.141005 0.0294441 0)
(-0.141195 -0.0256321 0)
(-0.142744 -0.0808121 0)
(-0.144783 -0.135659 0)
(-0.145533 -0.188867 0)
(-0.142347 -0.237508 0)
(-0.131974 -0.276106 0)
(-0.111193 -0.295637 0)
(-0.0784369 -0.2829 0)
(-0.0388334 -0.221307 0)
(-0.00930289 -0.095928 0)
(-0.0128717 0.118216 0)
(-0.0470745 0.25725 0)
(-0.0843675 0.313707 0)
(-0.107251 0.314966 0)
(-0.11407 0.284695 0)
(-0.109882 0.238855 0)
(-0.100132 0.18681 0)
(-0.0892317 0.133328 0)
(-0.0803388 0.0803125 0)
(-0.0754196 0.0280483 0)
(-0.0754212 -0.023988 0)
(-0.0803864 -0.0765702 0)
(-0.0894435 -0.130245 0)
(-0.100668 -0.184761 0)
(-0.110885 -0.238216 0)
(-0.115576 -0.285756 0)
(-0.109092 -0.317743 0)
(-0.0861208 -0.317692 0)
(-0.0482083 -0.26119 0)
(-0.0132046 -0.120184 0)
(-0.0187888 0.149559 0)
(-0.0583493 0.297986 0)
(-0.0869961 0.339163 0)
(-0.0909544 0.32142 0)
(-0.0757433 0.276927 0)
(-0.0511726 0.223494 0)
(-0.0248214 0.169622 0)
(-0.00169622 0.11846 0)
(0.0151628 0.0703969 0)
(0.024089 0.0245185 0)
(0.0243363 -0.0206473 0)
(0.0158453 -0.0667392 0)
(-0.000751536 -0.115273 0)
(-0.0238828 -0.167239 0)
(-0.0505584 -0.22233 0)
(-0.0757324 -0.27742 0)
(-0.0916458 -0.323851 0)
(-0.0881626 -0.343303 0)
(-0.0594146 -0.302644 0)
(-0.0191733 -0.152227 0)
(-0.0263306 0.192759 0)
(-0.0675221 0.334622 0)
(-0.0729813 0.344341 0)
(-0.044228 0.301603 0)
(0.00139136 0.244072 0)
(0.0499702 0.187506 0)
(0.0935701 0.137098 0)
(0.128162 0.09324 0)
(0.151935 0.0544951 0)
(0.164185 0.018877 0)
(0.164676 -0.0157187 0)
(0.15335 -0.0514224 0)
(0.130327 -0.0903861 0)
(0.096185 -0.134692 0)
(0.0526145 -0.185913 0)
(0.00357236 -0.243798 0)
(-0.0429459 -0.303177 0)
(-0.072777 -0.347961 0)
(-0.0680546 -0.339497 0)
(-0.0266352 -0.196094 0)
(-0.0286606 0.250696 0)
(-0.0578509 0.350541 0)
(-0.0142401 0.309412 0)
(0.0628951 0.242374 0)
(0.142532 0.180398 0)
(0.212307 0.130078 0)
(0.268105 0.0907819 0)
(0.309168 0.0597766 0)
(0.336073 0.0342347 0)
(0.349601 0.0117481 0)
(0.350218 -0.00975148 0)
(0.337891 -0.032221 0)
(0.312085 -0.05776 0)
(0.271913 -0.0888491 0)
(0.216651 -0.128446 0)
(0.146879 -0.179482 0)
(0.0665793 -0.242795 0)
(-0.0118899 -0.311761 0)
(-0.0570671 -0.354666 0)
(-0.0285024 -0.254248 0)
(0.0138341 0.2888 0)
(0.0301291 0.302649 0)
(0.153658 0.214045 0)
(0.282259 0.142412 0)
(0.382471 0.0940671 0)
(0.456699 0.0620913 0)
(0.510157 0.0406688 0)
(0.546844 0.0256491 0)
(0.569815 0.0142936 0)
(0.581073 0.00481561 0)
(0.581583 -0.00407065 0)
(0.571347 -0.0135005 0)
(0.549402 -0.0247655 0)
(0.513716 -0.0396716 0)
(0.461144 -0.0610135 0)
(0.387517 -0.0930808 0)
(0.287372 -0.141943 0)
(0.157964 -0.214729 0)
(0.032821 -0.304742 0)
(0.0151442 -0.291066 0)
(0.304806 0.147146 0)
(0.406021 0.127687 0)
(0.569196 0.0748002 0)
(0.685789 0.0419036 0)
(0.753284 0.0239113 0)
(0.794416 0.0139867 0)
(0.820755 0.00833944 0)
(0.837498 0.00491725 0)
(0.847473 0.0026188 0)
(0.852207 0.000846198 0)
(0.852367 -0.000766451 0)
(0.847967 -0.00251799 0)
(0.838372 -0.00477011 0)
(0.822082 -0.008113 0)
(0.796282 -0.0136427 0)
(0.755759 -0.0234301 0)
(0.688881 -0.041344 0)
(0.57252 -0.0743709 0)
(0.408471 -0.127734 0)
(0.305965 -0.147571 0)
)
;

boundaryField
{
    movingWall
    {
        type            fixedValue;
        value           uniform (1 0 0);
    }
    fixedWalls
    {
        type            noSlip;
    }
    frontAndBack
    {
        type            empty;
    }
}


// ************************************************************************* //
