/*--------------------------------*- C++ -*----------------------------------*\
  =========                 |
  \\      /  F ield         | OpenFOAM: The Open Source CFD Toolbox
   \\    /   O peration     | Website:  https://openfoam.org
    \\  /    A nd           | Version:  6
     \\/     M anipulation  |
\*---------------------------------------------------------------------------*/
FoamFile
{
    version     2.0;
    format      ascii;
    class       surfaceScalarField;
    location    "0.11";
    object      phi;
}
// * * * * * * * * * * * * * * * * * * * * * * * * * * * * * * * * * * * * * //

dimensions      [0 3 -1 0 0 0 0];

internalField   nonuniform List<scalar> 
760
(
-4.2507e-09
4.25025e-09
-4.78393e-08
4.35887e-08
-1.17665e-07
6.98256e-08
-1.97706e-07
8.00407e-08
-2.7757e-07
7.98646e-08
-3.51186e-07
7.36161e-08
-4.14873e-07
6.36864e-08
-4.6602e-07
5.11469e-08
-5.02397e-07
3.63774e-08
-5.21927e-07
1.953e-08
-5.22729e-07
8.02365e-10
-5.03327e-07
-1.94026e-08
-4.62982e-07
-4.03452e-08
-4.02195e-07
-6.07863e-08
-3.23438e-07
-7.87574e-08
-2.3215e-07
-9.12877e-08
-1.37926e-07
-9.42245e-08
-5.55979e-08
-8.23278e-08
-4.95634e-09
-5.06417e-08
-4.95644e-09
-4.41963e-08
4.84466e-08
-1.6045e-07
1.59842e-07
-3.22371e-07
2.31746e-07
-5.03242e-07
2.60912e-07
-6.82982e-07
2.59604e-07
-8.48296e-07
2.3893e-07
-9.90443e-07
2.05834e-07
-1.10316e-06
1.63867e-07
-1.18143e-06
1.14646e-07
-1.22097e-06
5.90645e-08
-1.21823e-06
-1.93254e-09
-1.17078e-06
-6.68525e-08
-1.07789e-06
-1.33232e-07
-9.41535e-07
-1.97145e-07
-7.67715e-07
-2.52578e-07
-5.68227e-07
-2.90776e-07
-3.62425e-07
-3.00027e-07
-1.77952e-07
-2.668e-07
-4.77803e-08
-1.80814e-07
-5.27367e-08
-7.52434e-08
1.2369e-07
-2.47412e-07
3.32011e-07
-4.7463e-07
4.58964e-07
-7.22869e-07
5.09151e-07
-9.6718e-07
5.03915e-07
-1.19071e-06
4.62457e-07
-1.38207e-06
3.972e-07
-1.53303e-06
3.14822e-07
-1.63702e-06
2.18632e-07
-1.68855e-06
1.10601e-07
-1.6832e-06
-7.28292e-09
-1.61796e-06
-1.32097e-07
-1.49202e-06
-2.59165e-07
-1.30804e-06
-3.81127e-07
-1.07381e-06
-4.86805e-07
-8.04457e-07
-5.60133e-07
-5.24488e-07
-5.79996e-07
-2.68608e-07
-5.22681e-07
-7.90738e-08
-3.70348e-07
-1.31811e-07
-9.54242e-08
2.19114e-07
-3.08694e-07
5.45281e-07
-5.84457e-07
7.34727e-07
-8.81687e-07
8.06382e-07
-1.17193e-06
7.94155e-07
-1.4364e-06
7.26926e-07
-1.6625e-06
6.23303e-07
-1.84107e-06
4.93389e-07
-1.96472e-06
3.42285e-07
-2.02716e-06
1.73047e-07
-2.0231e-06
-1.13457e-08
-1.94863e-06
-2.06572e-07
-1.80214e-06
-4.05656e-07
-1.58584e-06
-5.97423e-07
-1.30797e-06
-7.64678e-07
-9.85531e-07
-8.82568e-07
-6.4709e-07
-9.18438e-07
-3.34093e-07
-8.35677e-07
-9.89633e-08
-6.05478e-07
-2.30774e-07
-1.10243e-07
3.29357e-07
-3.56514e-07
7.91552e-07
-6.72593e-07
1.05081e-06
-1.01083e-06
1.14462e-06
-1.33957e-06
1.1229e-06
-1.63871e-06
1.02606e-06
-1.89506e-06
8.79656e-07
-2.09907e-06
6.97396e-07
-2.24286e-06
4.86074e-07
-2.31936e-06
2.49545e-07
-2.3221e-06
-8.60103e-09
-2.24562e-06
-2.83054e-07
-2.08648e-06
-5.64796e-07
-1.84522e-06
-8.38685e-07
-1.52931e-06
-1.08059e-06
-1.15706e-06
-1.25482e-06
-7.61506e-07
-1.31399e-06
-3.92627e-07
-1.20456e-06
-1.15061e-07
-8.83044e-07
-3.45835e-07
-1.2413e-07
4.53487e-07
-4.02168e-07
1.06959e-06
-7.57803e-07
1.40644e-06
-1.13674e-06
1.52355e-06
-1.50413e-06
1.49029e-06
-1.83872e-06
1.36065e-06
-2.12708e-06
1.16802e-06
-2.35959e-06
9.29905e-07
-2.52806e-06
6.54547e-07
-2.62459e-06
3.46072e-07
-2.64113e-06
7.94687e-09
-2.56983e-06
-3.54361e-07
-2.40412e-06
-7.30504e-07
-2.14127e-06
-1.10153e-06
-1.78648e-06
-1.43537e-06
-1.3586e-06
-1.6827e-06
-8.96128e-07
-1.77646e-06
-4.60629e-07
-1.64006e-06
-1.33167e-07
-1.21051e-06
-4.79002e-07
-1.40005e-07
5.93492e-07
-4.53724e-07
1.38331e-06
-8.53606e-07
1.80632e-06
-1.27803e-06
1.94798e-06
-1.68874e-06
1.901e-06
-2.0635e-06
1.73541e-06
-2.38902e-06
1.49353e-06
-2.65598e-06
1.19687e-06
-2.85618e-06
8.54752e-07
-2.98094e-06
4.70832e-07
-3.02033e-06
4.73351e-08
-2.96318e-06
-4.1151e-07
-2.79825e-06
-8.95439e-07
-2.51723e-06
-1.38255e-06
-2.12053e-06
-1.83207e-06
-1.62575e-06
-2.17749e-06
-1.07739e-06
-2.32482e-06
-5.53014e-07
-2.16443e-06
-1.57815e-07
-1.6057e-06
-6.36817e-07
-1.59797e-07
7.53289e-07
-5.16706e-07
1.74022e-06
-9.69149e-07
2.25877e-06
-1.44683e-06
2.42567e-06
-1.9078e-06
2.36197e-06
-2.32915e-06
2.15676e-06
-2.69831e-06
1.86269e-06
-3.00696e-06
1.50551e-06
-3.24746e-06
1.09525e-06
-3.41075e-06
6.3412e-07
-3.48499e-06
1.21574e-07
-3.45497e-06
-4.41527e-07
-3.30288e-06
-1.04753e-06
-3.01165e-06
-1.67378e-06
-2.5725e-06
-2.27122e-06
-1.99765e-06
-2.75234e-06
-1.33643e-06
-2.98604e-06
-6.8779e-07
-2.81307e-06
-1.94197e-07
-2.0993e-06
-8.31014e-07
-1.8508e-07
9.38369e-07
-5.95528e-07
2.15067e-06
-1.11135e-06
2.77459e-06
-1.6516e-06
2.96591e-06
-2.17037e-06
2.88073e-06
-2.64476e-06
2.63115e-06
-3.06384e-06
2.28178e-06
-3.42137e-06
1.86304e-06
-3.71137e-06
1.38525e-06
-3.92538e-06
8.48133e-07
-4.05028e-06
2.46469e-07
-4.06656e-06
-4.25246e-07
-3.94801e-06
-1.16608e-06
-3.66454e-06
-1.95725e-06
-3.19121e-06
-2.74454e-06
-2.52639e-06
-3.41717e-06
-1.71865e-06
-3.79378e-06
-8.933e-07
-3.63842e-06
-2.51035e-07
-2.74156e-06
-1.08205e-06
-2.17752e-07
1.15612e-06
-6.95049e-07
2.62796e-06
-1.28709e-06
3.36663e-06
-1.89969e-06
3.57852e-06
-2.48302e-06
3.46406e-06
-3.01528e-06
3.16341e-06
-3.48868e-06
2.75519e-06
-3.90061e-06
2.27497e-06
-4.24848e-06
1.73312e-06
-4.52626e-06
1.12592e-06
-4.72121e-06
4.41413e-07
-4.81046e-06
-3.35996e-07
-4.75837e-06
-1.21817e-06
-4.51713e-06
-2.19849e-06
-4.03562e-06
-3.22605e-06
-3.28328e-06
-4.16951e-06
-2.29352e-06
-4.78354e-06
-1.21775e-06
-4.71419e-06
-3.45037e-07
-3.61427e-06
-1.42709e-06
-2.60812e-07
1.41693e-06
-8.2216e-07
3.18931e-06
-1.5051e-06
4.04957e-06
-2.19914e-06
4.27256e-06
-2.85118e-06
4.1161e-06
-3.44239e-06
3.75462e-06
-3.97014e-06
3.28294e-06
-4.43753e-06
2.74235e-06
-4.84771e-06
2.1433e-06
-5.19988e-06
1.47808e-06
-5.48484e-06
7.2637e-07
-5.67932e-06
-1.41513e-07
-5.73947e-06
-1.15803e-06
-5.59634e-06
-2.34162e-06
-5.16082e-06
-3.66157e-06
-4.35079e-06
-4.97954e-06
-3.15563e-06
-5.97869e-06
-1.73754e-06
-6.13228e-06
-5.07238e-07
-4.84457e-06
-1.93432e-06
-3.19491e-07
1.73642e-06
-9.87651e-07
3.85747e-06
-1.77748e-06
4.83939e-06
-2.55914e-06
5.05422e-06
-3.27833e-06
4.83529e-06
-3.92213e-06
4.39842e-06
-4.49561e-06
3.85642e-06
-5.00999e-06
3.25673e-06
-5.47685e-06
2.61017e-06
-5.90412e-06
1.90535e-06
-6.29082e-06
1.11307e-06
-6.61891e-06
1.86574e-07
-6.84153e-06
-9.35403e-07
-6.86998e-06
-2.31317e-06
-6.56843e-06
-3.96313e-06
-5.77704e-06
-5.77093e-06
-4.39589e-06
-7.35985e-06
-2.55194e-06
-7.97623e-06
-7.89406e-07
-6.60711e-06
-2.72373e-06
-4.0319e-07
2.13961e-06
-1.20855e-06
4.66283e-06
-2.12033e-06
5.75117e-06
-2.98784e-06
5.92173e-06
-3.76059e-06
5.60804e-06
-4.43614e-06
5.07397e-06
-5.03033e-06
4.4506e-06
-5.56472e-06
3.79112e-06
-6.06171e-06
3.10716e-06
-6.54122e-06
2.38487e-06
-7.01561e-06
1.58746e-06
-7.4798e-06
6.50761e-07
-7.89433e-06
-5.20875e-07
-8.16145e-06
-2.04605e-06
-8.1029e-06
-4.02168e-06
-7.46599e-06
-6.40784e-06
-6.0103e-06
-8.81553e-06
-3.73796e-06
-1.02486e-05
-1.26342e-06
-9.08164e-06
-3.98715e-06
-5.28978e-07
2.66859e-06
-1.51072e-06
5.64458e-06
-2.55089e-06
6.79133e-06
-3.48235e-06
6.8532e-06
-4.26958e-06
6.39527e-06
-4.92785e-06
5.73224e-06
-5.48742e-06
5.01017e-06
-5.98205e-06
4.28575e-06
-6.44597e-06
3.57107e-06
-6.91235e-06
2.85125e-06
-7.40984e-06
2.08495e-06
-7.95341e-06
1.19432e-06
-8.52513e-06
5.08489e-08
-9.0415e-06
-1.52967e-06
-9.31155e-06
-3.75163e-06
-9.01076e-06
-6.70863e-06
-7.73349e-06
-1.00928e-05
-5.23465e-06
-1.27474e-05
-1.99521e-06
-1.23211e-05
-5.98236e-06
-7.27988e-07
3.39658e-06
-1.92986e-06
6.84645e-06
-3.07362e-06
7.9351e-06
-3.99821e-06
7.77778e-06
-4.70684e-06
7.1039e-06
-5.24469e-06
6.2701e-06
-5.66169e-06
5.42717e-06
-6.00528e-06
4.62935e-06
-6.32048e-06
3.88627e-06
-6.65095e-06
3.18173e-06
-7.03897e-06
2.47296e-06
-7.52083e-06
1.67618e-06
-8.1123e-06
6.42321e-07
-8.77636e-06
-8.65609e-07
-9.36885e-06
-3.15914e-06
-9.57212e-06
-6.50536e-06
-8.86367e-06
-1.08013e-05
-6.65723e-06
-1.49538e-05
-2.95545e-06
-1.60229e-05
-8.93781e-06
-1.05592e-06
4.4525e-06
-2.50207e-06
8.29259e-06
-3.63165e-06
9.06468e-06
-4.3648e-06
8.51093e-06
-4.79288e-06
7.53198e-06
-5.01141e-06
6.48863e-06
-5.0976e-06
5.51335e-06
-5.11353e-06
4.64528e-06
-5.11098e-06
3.88372e-06
-5.13618e-06
3.20693e-06
-5.23464e-06
2.57142e-06
-5.45476e-06
1.89631e-06
-5.84627e-06
1.03383e-06
-6.44378e-06
-2.68101e-07
-7.21979e-06
-2.38314e-06
-7.98921e-06
-5.73593e-06
-8.26166e-06
-1.05288e-05
-7.14696e-06
-1.60685e-05
-3.84233e-06
-1.93275e-05
-1.27801e-05
-1.60472e-06
6.05723e-06
-3.19711e-06
9.88498e-06
-3.94302e-06
9.81059e-06
-4.05923e-06
8.62713e-06
-3.81505e-06
7.2878e-06
-3.38064e-06
6.05423e-06
-2.86165e-06
4.99435e-06
-2.3273e-06
4.11093e-06
-1.82463e-06
3.38105e-06
-1.38846e-06
2.77076e-06
-1.05141e-06
2.23438e-06
-8.55749e-07
1.70064e-06
-8.67485e-07
1.04557e-06
-1.1875e-06
5.19136e-08
-1.93879e-06
-1.63185e-06
-3.18253e-06
-4.49219e-06
-4.68274e-06
-9.0286e-06
-5.49314e-06
-1.52581e-05
-3.94131e-06
-2.08793e-05
-1.67215e-05
-2.47454e-06
8.53177e-06
-3.53672e-06
1.09472e-05
-2.91611e-06
9.18999e-06
-1.59619e-06
7.30721e-06
-9.38292e-08
5.78544e-06
1.38923e-06
4.57117e-06
2.76845e-06
3.61513e-06
4.0064e-06
2.87298e-06
5.09031e-06
2.29714e-06
6.01835e-06
1.84272e-06
6.78722e-06
1.46551e-06
7.37728e-06
1.11058e-06
7.72983e-06
6.93021e-07
7.71351e-06
6.82331e-08
7.09076e-06
-1.0091e-06
5.53391e-06
-2.93534e-06
2.82587e-06
-6.32057e-06
-4.99675e-07
-1.19326e-05
-2.26127e-06
-1.91177e-05
-1.89827e-05
-2.83483e-06
1.13666e-05
-4.58445e-07
8.57077e-06
3.38742e-06
5.34412e-06
6.92048e-06
3.77415e-06
9.91972e-06
2.7862e-06
1.24327e-05
2.05824e-06
1.45189e-05
1.52887e-06
1.62403e-05
1.15159e-06
1.76569e-05
8.80539e-07
1.88191e-05
6.80484e-07
1.9761e-05
5.23686e-07
2.04896e-05
3.81963e-07
2.0965e-05
2.17602e-07
2.10618e-05
-2.85511e-08
2.05079e-05
-4.55187e-07
1.88138e-05
-1.24123e-06
1.52796e-05
-2.78635e-06
9.41304e-06
-6.06609e-06
2.51757e-06
-1.22223e-05
-1.64652e-05
1.13666e-05
1.99374e-05
2.52815e-05
2.90556e-05
3.18418e-05
3.39001e-05
3.54289e-05
3.65805e-05
3.74611e-05
3.81416e-05
3.86652e-05
3.90472e-05
3.92648e-05
3.92363e-05
3.87811e-05
3.75398e-05
3.47535e-05
2.86874e-05
1.64652e-05
)
;

boundaryField
{
    movingWall
    {
        type            calculated;
        value           uniform 0;
    }
    fixedWalls
    {
        type            calculated;
        value           uniform 0;
    }
    frontAndBack
    {
        type            empty;
        value           nonuniform 0();
    }
}


// ************************************************************************* //
