/*--------------------------------*- C++ -*----------------------------------*\
  =========                 |
  \\      /  F ield         | OpenFOAM: The Open Source CFD Toolbox
   \\    /   O peration     | Website:  https://openfoam.org
    \\  /    A nd           | Version:  6
     \\/     M anipulation  |
\*---------------------------------------------------------------------------*/
FoamFile
{
    version     2.0;
    format      ascii;
    class       surfaceScalarField;
    location    "0.06";
    object      phi;
}
// * * * * * * * * * * * * * * * * * * * * * * * * * * * * * * * * * * * * * //

dimensions      [0 3 -1 0 0 0 0];

internalField   nonuniform List<scalar> 
760
(
5.44745e-09
-5.44769e-09
-3.06064e-08
3.60538e-08
-1.05703e-07
7.50962e-08
-2.04812e-07
9.91098e-08
-3.1322e-07
1.08407e-07
-4.18629e-07
1.05409e-07
-5.11433e-07
9.2804e-08
-5.84445e-07
7.30119e-08
-6.32451e-07
4.80065e-08
-6.5189e-07
1.94392e-08
-6.40783e-07
-1.11072e-08
-5.9894e-07
-4.18434e-08
-5.28393e-07
-7.0547e-08
-4.33953e-07
-9.44402e-08
-3.23715e-07
-1.10238e-07
-2.0927e-07
-1.14445e-07
-1.05286e-07
-1.03984e-07
-2.82107e-08
-7.7075e-08
6.93459e-09
-3.51453e-08
6.93462e-09
-3.4753e-08
2.93054e-08
-1.5523e-07
1.56531e-07
-3.49029e-07
2.68895e-07
-5.89534e-07
3.39615e-07
-8.47744e-07
3.66618e-07
-1.09737e-06
3.55039e-07
-1.3167e-06
3.12125e-07
-1.48881e-06
2.4513e-07
-1.6013e-06
1.60494e-07
-1.64581e-06
6.39516e-08
-1.61804e-06
-3.88762e-08
-1.51813e-06
-1.41755e-07
-1.35146e-06
-2.37216e-07
-1.12962e-06
-3.1628e-07
-8.71123e-07
-3.68739e-07
-6.01326e-07
-3.84242e-07
-3.50922e-07
-3.54387e-07
-1.5225e-07
-2.75747e-07
-3.23253e-08
-1.5507e-07
-2.53905e-08
-7.64087e-08
1.05714e-07
-2.79684e-07
3.59807e-07
-5.78592e-07
5.67803e-07
-9.3522e-07
6.96244e-07
-1.31086e-06
7.42253e-07
-1.67044e-06
7.14627e-07
-1.98469e-06
6.26367e-07
-2.23053e-06
4.90973e-07
-2.39089e-06
3.20852e-07
-2.45428e-06
1.27341e-07
-2.4148e-06
-7.83516e-08
-2.27269e-06
-2.83865e-07
-2.03532e-06
-4.74585e-07
-1.71843e-06
-6.33173e-07
-1.34699e-06
-7.40179e-07
-9.55048e-07
-7.76184e-07
-5.8371e-07
-7.25725e-07
-2.76678e-07
-5.82779e-07
-7.31561e-08
-3.58591e-07
-9.85466e-08
-1.11594e-07
2.17308e-07
-3.91501e-07
6.39714e-07
-7.88023e-07
9.64325e-07
-1.24983e-06
1.15805e-06
-1.7288e-06
1.22122e-06
-2.18289e-06
1.16872e-06
-2.57752e-06
1.021e-06
-2.88563e-06
7.99082e-07
-3.08713e-06
5.22353e-07
-3.16836e-06
2.08563e-07
-3.12198e-06
-1.24728e-07
-2.94766e-06
-4.58185e-07
-2.65332e-06
-7.68926e-07
-2.25678e-06
-1.02971e-06
-1.78714e-06
-1.20982e-06
-1.28502e-06
-1.27831e-06
-8.00765e-07
-1.20998e-06
-3.90145e-07
-9.934e-07
-1.07631e-07
-6.41105e-07
-2.06178e-07
-1.43091e-07
3.60399e-07
-4.96349e-07
9.92973e-07
-9.88215e-07
1.45619e-06
-1.55251e-06
1.72234e-06
-2.13097e-06
1.79969e-06
-2.67496e-06
1.71271e-06
-3.14564e-06
1.49168e-06
-3.51317e-06
1.16662e-06
-3.75548e-06
7.64653e-07
-3.85716e-06
3.10251e-07
-3.80929e-06
-1.726e-07
-3.61004e-06
-6.57435e-07
-3.2664e-06
-1.11256e-06
-2.79654e-06
-1.49958e-06
-2.2321e-06
-1.77425e-06
-1.6196e-06
-1.89082e-06
-1.01939e-06
-1.81018e-06
-5.01714e-07
-1.51108e-06
-1.39543e-07
-1.00328e-06
-3.45721e-07
-1.74606e-07
5.35005e-07
-6.03396e-07
1.42176e-06
-1.19445e-06
2.04725e-06
-1.86522e-06
2.39311e-06
-2.54633e-06
2.4808e-06
-3.18243e-06
2.34881e-06
-3.73108e-06
2.04033e-06
-4.16056e-06
1.5961e-06
-4.44751e-06
1.0516e-06
-4.57513e-06
4.37872e-07
-4.53247e-06
-2.15256e-07
-4.31515e-06
-8.74759e-07
-3.92752e-06
-1.50019e-06
-3.38615e-06
-2.04095e-06
-2.72372e-06
-2.43668e-06
-1.99216e-06
-2.62237e-06
-1.2633e-06
-2.53904e-06
-6.25289e-07
-2.14909e-06
-1.74089e-07
-1.45448e-06
-5.1981e-07
-2.09678e-07
7.44684e-07
-7.22117e-07
1.9342e-06
-1.42223e-06
2.74736e-06
-2.20877e-06
3.17964e-06
-3.00006e-06
3.27209e-06
-3.73407e-06
3.08282e-06
-4.3655e-06
2.67176e-06
-4.86182e-06
2.09242e-06
-5.19937e-06
1.38914e-06
-5.36033e-06
5.98836e-07
-5.33141e-06
-2.44173e-07
-5.10441e-06
-1.10177e-06
-4.67898e-06
-1.92562e-06
-4.06752e-06
-2.6524e-06
-3.30138e-06
-3.20283e-06
-2.43682e-06
-3.48693e-06
-1.55838e-06
-3.41748e-06
-7.76424e-07
-2.93105e-06
-2.16765e-07
-2.01414e-06
-7.36575e-07
-2.51598e-07
9.96281e-07
-8.61384e-07
2.54399e-06
-1.68542e-06
3.5714e-06
-2.60019e-06
4.09441e-06
-3.51051e-06
4.18241e-06
-4.34807e-06
3.92038e-06
-5.06617e-06
3.38986e-06
-5.63326e-06
2.65951e-06
-6.02687e-06
1.78275e-06
-6.22912e-06
8.01079e-07
-6.22431e-06
-2.4898e-07
-5.99921e-06
-1.32687e-06
-5.5463e-06
-2.37853e-06
-4.87025e-06
-3.32845e-06
-3.99717e-06
-4.07591e-06
-2.98482e-06
-4.49928e-06
-1.93047e-06
-4.47183e-06
-9.71502e-07
-3.89002e-06
-2.73427e-07
-2.71221e-06
-1.01e-06
-3.03513e-07
1.29979e-06
-1.02918e-06
3.26965e-06
-1.99506e-06
4.53728e-06
-3.05049e-06
5.14985e-06
-4.08565e-06
5.21756e-06
-5.0274e-06
4.86213e-06
-5.83028e-06
4.19275e-06
-6.46657e-06
3.2958e-06
-6.91757e-06
2.23376e-06
-7.16712e-06
1.05063e-06
-7.19782e-06
-2.18281e-07
-6.99055e-06
-1.53414e-06
-6.52789e-06
-2.84119e-06
-5.80215e-06
-4.05418e-06
-4.82816e-06
-5.04991e-06
-3.6593e-06
-5.66814e-06
-2.40287e-06
-5.72826e-06
-1.22719e-06
-5.0657e-06
-3.50506e-07
-3.58889e-06
-1.36051e-06
-3.68765e-07
1.66856e-06
-1.23272e-06
4.13361e-06
-2.35843e-06
5.66298e-06
-3.56187e-06
6.35329e-06
-4.71842e-06
6.3741e-06
-5.75326e-06
5.89697e-06
-6.62655e-06
5.06604e-06
-7.31891e-06
3.98815e-06
-7.81934e-06
2.73419e-06
-8.11643e-06
1.34772e-06
-8.19288e-06
-1.41834e-07
-8.02377e-06
-1.70325e-06
-7.57947e-06
-3.28548e-06
-6.83456e-06
-4.7991e-06
-5.78402e-06
-6.10044e-06
-4.46672e-06
-6.98544e-06
-2.99197e-06
-7.20301e-06
-1.5595e-06
-6.49817e-06
-4.55342e-07
-4.69305e-06
-1.81585e-06
-4.51544e-07
2.1201e-06
-1.4789e-06
5.16096e-06
-2.77768e-06
6.96177e-06
-4.12383e-06
7.69944e-06
-5.38e-06
7.63028e-06
-6.47582e-06
6.99279e-06
-7.38407e-06
5.97428e-06
-8.10007e-06
4.70416e-06
-8.62598e-06
3.26009e-06
-8.95957e-06
1.68131e-06
-9.08699e-06
-1.44108e-08
-8.97929e-06
-1.81095e-06
-8.59371e-06
-3.67107e-06
-7.88201e-06
-5.51079e-06
-6.80893e-06
-7.17352e-06
-5.38324e-06
-8.41113e-06
-3.69979e-06
-8.88646e-06
-1.98178e-06
-8.21618e-06
-5.96615e-07
-6.07822e-06
-2.41247e-06
-5.58168e-07
2.67827e-06
-1.77499e-06
6.37779e-06
-3.24768e-06
8.43446e-06
-4.70691e-06
9.15867e-06
-6.0099e-06
8.93327e-06
-7.10172e-06
8.08461e-06
-7.97809e-06
6.85065e-06
-8.65744e-06
5.38351e-06
-9.16166e-06
3.76431e-06
-9.50319e-06
2.02285e-06
-9.67651e-06
1.58903e-07
-9.65264e-06
-1.83482e-06
-9.37767e-06
-3.94604e-06
-8.77796e-06
-6.11051e-06
-7.77757e-06
-8.17391e-06
-6.3347e-06
-9.854e-06
-4.50155e-06
-1.07196e-05
-2.50079e-06
-1.02169e-05
-7.85027e-07
-7.79398e-06
-3.19749e-06
-6.99649e-07
3.37792e-06
-2.12976e-06
7.8079e-06
-3.75143e-06
1.00561e-05
-5.2519e-06
1.06591e-05
-6.50067e-06
1.0182e-05
-7.47676e-06
9.06071e-06
-8.21308e-06
7.58697e-06
-8.76067e-06
5.9311e-06
-9.16751e-06
4.17115e-06
-9.46595e-06
2.32129e-06
-9.66431e-06
3.57264e-07
-9.74004e-06
-1.75908e-06
-9.63433e-06
-4.05175e-06
-9.25109e-06
-6.49375e-06
-8.46768e-06
-8.95731e-06
-7.16986e-06
-1.11518e-05
-5.32626e-06
-1.25632e-05
-3.1093e-06
-1.24339e-05
-1.0343e-06
-9.86897e-06
-4.23179e-06
-8.96334e-07
4.27425e-06
-2.55313e-06
9.46469e-06
-4.24862e-06
1.17516e-05
-5.64885e-06
1.20594e-05
-6.6725e-06
1.12057e-05
-7.36138e-06
9.74959e-06
-7.80258e-06
8.02816e-06
-8.08778e-06
6.2163e-06
-8.29426e-06
4.37763e-06
-8.47645e-06
2.50348e-06
-8.66056e-06
5.41369e-07
-8.83808e-06
-1.58156e-06
-8.95662e-06
-3.93321e-06
-8.9097e-06
-6.54067e-06
-8.53331e-06
-9.33371e-06
-7.62648e-06
-1.20586e-05
-6.02613e-06
-1.41636e-05
-3.7708e-06
-1.46892e-05
-1.36157e-06
-1.22782e-05
-5.59336e-06
-1.18396e-06
5.45822e-06
-3.0469e-06
1.13276e-05
-4.644e-06
1.33487e-05
-5.69231e-06
1.31077e-05
-6.22778e-06
1.17412e-05
-6.3933e-06
9.91511e-06
-6.34465e-06
7.97951e-06
-6.21472e-06
6.08637e-06
-6.10495e-06
4.26786e-06
-6.08675e-06
2.48528e-06
-6.20324e-06
6.57859e-07
-6.46605e-06
-1.31875e-06
-6.84421e-06
-3.55505e-06
-7.24427e-06
-6.14061e-06
-7.48585e-06
-9.09212e-06
-7.29048e-06
-1.2254e-05
-6.32644e-06
-1.51276e-05
-4.38439e-06
-1.66313e-05
-1.7817e-06
-1.48809e-05
-7.37506e-06
-1.61049e-06
7.0687e-06
-3.55672e-06
1.32739e-05
-4.69977e-06
1.44918e-05
-4.98403e-06
1.33919e-05
-4.66807e-06
1.14252e-05
-4.03029e-06
9.27733e-06
-3.29234e-06
7.24156e-06
-2.61066e-06
5.40469e-06
-2.09068e-06
3.74789e-06
-1.80428e-06
2.19887e-06
-1.80187e-06
6.55449e-07
-2.11563e-06
-1.00499e-06
-2.75044e-06
-2.92024e-06
-3.65822e-06
-5.23283e-06
-4.69237e-06
-8.05797e-06
-5.54977e-06
-1.13966e-05
-5.74171e-06
-1.49357e-05
-4.70127e-06
-1.76717e-05
-2.27494e-06
-1.73072e-05
-9.65e-06
-2.18285e-06
9.25155e-06
-3.79772e-06
1.48887e-05
-3.80939e-06
1.45034e-05
-2.73244e-06
1.2315e-05
-1.15364e-06
9.84641e-06
5.27829e-07
7.59586e-06
2.0734e-06
5.69599e-06
3.35228e-06
4.12581e-06
4.29439e-06
2.80578e-06
4.85584e-06
1.63742e-06
4.99749e-06
5.13796e-07
4.67493e-06
-6.82425e-07
3.84102e-06
-2.08633e-06
2.46748e-06
-3.85929e-06
5.98568e-07
-6.18905e-06
-1.54843e-06
-9.24962e-06
-3.44302e-06
-1.30411e-05
-4.14999e-06
-1.69647e-05
-2.68272e-06
-1.87745e-05
-1.23327e-05
-2.64074e-06
1.18923e-05
-2.7289e-06
1.49769e-05
-4.73466e-07
1.2248e-05
2.61254e-06
9.22897e-06
5.69194e-06
6.76701e-06
8.40801e-06
4.87979e-06
1.06338e-05
3.47021e-06
1.23468e-05
2.41284e-06
1.35614e-05
1.59112e-06
1.42915e-05
9.07296e-07
1.45293e-05
2.7605e-07
1.42334e-05
-3.86553e-07
1.33238e-05
-1.17671e-06
1.16866e-05
-2.2221e-06
9.20655e-06
-3.709e-06
5.86407e-06
-5.90715e-06
1.95878e-06
-9.13579e-06
-1.4921e-06
-1.35139e-05
-2.46002e-06
-1.78066e-05
-1.47927e-05
-1.26089e-06
1.31532e-05
3.0765e-06
1.06395e-05
8.76356e-06
6.56094e-06
1.38201e-05
4.17243e-06
1.78689e-05
2.71826e-06
2.09667e-05
1.78197e-06
2.32646e-05
1.17229e-06
2.49121e-05
7.65384e-07
2.6025e-05
4.78125e-07
2.66764e-05
2.559e-07
2.68927e-05
5.98377e-08
2.66494e-05
-1.43292e-07
2.58629e-05
-3.90174e-07
2.43744e-05
-7.33666e-07
2.19323e-05
-1.26689e-06
1.81976e-05
-2.17244e-06
1.28739e-05
-3.8121e-06
6.18828e-06
-6.82822e-06
2.21458e-07
-1.18398e-05
-1.45713e-05
1.31532e-05
2.37927e-05
3.03536e-05
3.45261e-05
3.72443e-05
3.90263e-05
4.01986e-05
4.0964e-05
4.14421e-05
4.1698e-05
4.17578e-05
4.16145e-05
4.12244e-05
4.04907e-05
3.92238e-05
3.70514e-05
3.32393e-05
2.6411e-05
1.45713e-05
)
;

boundaryField
{
    movingWall
    {
        type            calculated;
        value           uniform 0;
    }
    fixedWalls
    {
        type            calculated;
        value           uniform 0;
    }
    frontAndBack
    {
        type            empty;
        value           nonuniform 0();
    }
}


// ************************************************************************* //
