/*--------------------------------*- C++ -*----------------------------------*\
  =========                 |
  \\      /  F ield         | OpenFOAM: The Open Source CFD Toolbox
   \\    /   O peration     | Website:  https://openfoam.org
    \\  /    A nd           | Version:  6
     \\/     M anipulation  |
\*---------------------------------------------------------------------------*/
FoamFile
{
    version     2.0;
    format      ascii;
    class       volScalarField;
    location    "0.09";
    object      p;
}
// * * * * * * * * * * * * * * * * * * * * * * * * * * * * * * * * * * * * * //

dimensions      [0 2 -2 0 0 0 0];

internalField   nonuniform List<scalar> 
400
(
1.88684e-05
-0.0464181
-0.10425
-0.148908
-0.165653
-0.14786
-0.0950323
-0.0110875
0.0970456
0.220491
0.349262
0.472976
0.581545
0.665931
0.71904
0.736855
0.719887
0.674899
0.616842
0.570406
0.0460487
-0.00166123
-0.0470574
-0.0778753
-0.0868194
-0.0692328
-0.024519
0.0444905
0.132536
0.232707
0.337114
0.437514
0.525932
0.595323
0.640285
0.657903
0.648777
0.617676
0.572084
0.524413
0.107226
0.0411326
-0.00800467
-0.0364599
-0.0437473
-0.0273024
0.0128268
0.0738893
0.151266
0.239031
0.330446
0.418468
0.496269
0.557775
0.59821
0.614719
0.607246
0.578463
0.529074
0.463011
0.163703
0.0722396
0.0111061
-0.0213618
-0.0302409
-0.0148179
0.0238956
0.0826383
0.156749
0.240585
0.327865
0.412048
0.486742
0.546115
0.585301
0.600887
0.591827
0.558945
0.497428
0.405906
0.202517
0.0841882
0.0086658
-0.029532
-0.0402415
-0.0243983
0.0159165
0.0766621
0.152792
0.238578
0.327821
0.414105
0.491086
0.552788
0.593883
0.610104
0.599283
0.560583
0.484479
0.36589
0.214402
0.0685862
-0.0219693
-0.065724
-0.0768722
-0.0579285
-0.0121581
0.0554046
0.139071
0.232764
0.330098
0.424514
0.509442
0.578473
0.625532
0.645246
0.634176
0.589872
0.498473
0.352037
0.19132
0.0171002
-0.0882636
-0.135974
-0.144691
-0.118658
-0.0625306
0.0174383
0.114709
0.222671
0.33459
0.443601
0.542731
0.624934
0.683142
0.710605
0.702359
0.65415
0.547629
0.372219
0.124647
-0.0794312
-0.19858
-0.247105
-0.248849
-0.210226
-0.137626
-0.0387781
0.0787664
0.20778
0.341142
0.471659
0.591906
0.694092
0.769957
0.811059
0.810501
0.76172
0.641083
0.434992
0.0036789
-0.232241
-0.363114
-0.407373
-0.39551
-0.336922
-0.240246
-0.114985
0.0302059
0.187527
0.349596
0.509033
0.658077
0.788217
0.889863
0.952523
0.96677
0.922824
0.790189
0.551156
-0.185812
-0.455888
-0.594664
-0.626743
-0.591758
-0.503381
-0.373194
-0.212769
-0.0318431
0.161442
0.359777
0.555971
0.742258
0.909625
1.04714
1.1419
1.18114
1.15047
1.00984
0.735296
-0.46353
-0.769906
-0.909515
-0.917007
-0.845213
-0.713951
-0.538589
-0.332966
-0.107656
0.129364
0.371493
0.612397
0.844948
1.06014
1.24594
1.38676
1.4656
1.46139
1.32024
1.00787
-0.857944
-1.20127
-1.3285
-1.2917
-1.16327
-0.971674
-0.736859
-0.474824
-0.196322
0.0917568
0.384544
0.677626
0.965564
1.24032
1.48943
1.69476
1.83414
1.87715
1.74941
1.39864
-1.41256
-1.78834
-1.87819
-1.76546
-1.55161
-1.2766
-0.965239
-0.634842
-0.294971
0.0500882
0.398722
0.749962
1.10162
1.44824
1.77838
2.07224
2.3022
2.42547
2.33734
1.95323
-2.19892
-2.58715
-2.59147
-2.35182
-2.01117
-1.62294
-1.21552
-0.805195
-0.397813
0.00725604
0.413727
0.826079
1.24752
1.67756
2.10854
2.52149
2.88466
3.14087
3.14235
2.74637
-3.34324
-3.6807
-3.5054
-3.05721
-2.532
-1.99417
-1.47068
-0.971686
-0.495072
-0.0320749
0.428883
0.900036
1.39257
1.91438
2.46597
3.03466
3.58988
4.06254
4.2504
3.90899
-5.07208
-5.18689
-4.6531
-3.87068
-3.08479
-2.3574
-1.70179
-1.11235
-0.572578
-0.0615943
0.442653
0.962348
1.51931
2.13385
2.82134
3.58539
4.40943
5.22607
5.78272
5.67369
-7.79206
-7.25838
-6.04832
-4.75514
-3.61715
-2.6628
-1.86939
-1.1996
-0.613743
-0.0746286
0.452254
1.00036
1.60412
2.30047
3.12856
4.12465
5.30908
6.64778
7.89497
8.45347
-12.4106
-10.0882
-7.60726
-5.58664
-4.01778
-2.82473
-1.91474
-1.19698
-0.599034
-0.0649177
0.451971
0.995264
1.61158
2.35691
3.30367
4.54279
6.16637
8.24591
10.7848
13.164
-21.2938
-13.7977
-8.77447
-5.85279
-3.92829
-2.61373
-1.69857
-1.02478
-0.488407
-0.0213485
0.427431
0.904023
1.4595
2.16206
3.11587
4.48019
6.46814
9.46665
14.5792
22.1773
-36.1737
-17.3692
-8.39951
-4.79896
-2.9311
-1.81879
-1.11846
-0.635049
-0.262061
0.0595253
0.369176
0.701181
1.09496
1.60935
2.35053
3.51505
5.45394
9.15161
18.2353
37.1547
)
;

boundaryField
{
    movingWall
    {
        type            zeroGradient;
    }
    fixedWalls
    {
        type            zeroGradient;
    }
    frontAndBack
    {
        type            empty;
    }
}


// ************************************************************************* //
