/*--------------------------------*- C++ -*----------------------------------*\
  =========                 |
  \\      /  F ield         | OpenFOAM: The Open Source CFD Toolbox
   \\    /   O peration     | Website:  https://openfoam.org
    \\  /    A nd           | Version:  6
     \\/     M anipulation  |
\*---------------------------------------------------------------------------*/
FoamFile
{
    version     2.0;
    format      ascii;
    class       surfaceScalarField;
    location    "0.055";
    object      phi;
}
// * * * * * * * * * * * * * * * * * * * * * * * * * * * * * * * * * * * * * //

dimensions      [0 3 -1 0 0 0 0];

internalField   nonuniform List<scalar> 
760
(
-2.59544e-09
2.59528e-09
-4.7169e-08
4.45736e-08
-1.22341e-07
7.51717e-08
-2.11072e-07
8.87312e-08
-3.00802e-07
8.97306e-08
-3.83285e-07
8.24824e-08
-4.53279e-07
6.99944e-08
-5.0738e-07
5.41008e-08
-5.43208e-07
3.58276e-08
-5.59003e-07
1.5795e-08
-5.53522e-07
-5.48054e-09
-5.26137e-07
-2.73855e-08
-4.77089e-07
-4.90474e-08
-4.07935e-07
-6.91541e-08
-3.22213e-07
-8.57221e-08
-2.26345e-07
-9.58677e-08
-1.30599e-07
-9.57461e-08
-4.97904e-08
-8.0809e-08
-2.51821e-09
-4.72722e-08
-2.51827e-09
-4.42634e-08
4.68587e-08
-1.67272e-07
1.67583e-07
-3.44451e-07
2.5235e-07
-5.46999e-07
2.91279e-07
-7.50726e-07
2.93458e-07
-9.38052e-07
2.69808e-07
-1.09696e-06
2.28898e-07
-1.21928e-06
1.76429e-07
-1.29938e-06
1.15925e-07
-1.3333e-06
4.97145e-08
-1.31854e-06
-2.02425e-08
-1.25419e-06
-9.17383e-08
-1.14143e-06
-1.61801e-07
-9.84438e-07
-2.26149e-07
-7.91583e-07
-2.78577e-07
-5.76975e-07
-3.10475e-07
-3.61738e-07
-3.10984e-07
-1.73993e-07
-2.68553e-07
-4.52501e-08
-1.76016e-07
-4.77683e-08
-7.86025e-08
1.25461e-07
-2.65425e-07
3.54405e-07
-5.19003e-07
5.05929e-07
-8.01762e-07
5.74039e-07
-1.0831e-06
5.74794e-07
-1.34047e-06
5.27175e-07
-1.55812e-06
4.46549e-07
-1.72519e-06
3.43504e-07
-1.83413e-06
2.24859e-07
-1.87969e-06
9.52803e-08
-1.85865e-06
-4.12862e-08
-1.76991e-06
-1.80479e-07
-1.61518e-06
-3.16533e-07
-1.40006e-06
-4.41263e-07
-1.13564e-06
-5.42998e-07
-8.40264e-07
-6.05851e-07
-5.4103e-07
-6.10219e-07
-2.73708e-07
-5.35875e-07
-7.95585e-08
-3.70165e-07
-1.27327e-07
-1.02511e-07
2.27972e-07
-3.39528e-07
5.91422e-07
-6.54015e-07
8.20416e-07
-9.99377e-07
9.19401e-07
-1.33976e-06
9.15174e-07
-1.64937e-06
8.36793e-07
-1.91041e-06
7.07585e-07
-2.11061e-06
5.43702e-07
-2.2414e-06
3.55655e-07
-2.29679e-06
1.50669e-07
-2.2729e-06
-6.51759e-08
-2.16817e-06
-2.85211e-07
-1.9841e-06
-5.00605e-07
-1.72662e-06
-6.98738e-07
-1.40806e-06
-8.61561e-07
-1.0494e-06
-9.64513e-07
-6.82287e-07
-9.7733e-07
-3.49567e-07
-8.68595e-07
-1.03109e-07
-6.16623e-07
-2.30436e-07
-1.21255e-07
3.49227e-07
-4.01274e-07
8.71441e-07
-7.69648e-07
1.18879e-06
-1.1706e-06
1.32035e-06
-1.56299e-06
1.30756e-06
-1.91826e-06
1.19207e-06
-2.21723e-06
1.00655e-06
-2.44694e-06
7.73407e-07
-2.59832e-06
5.07035e-07
-2.66481e-06
2.17164e-07
-2.64179e-06
-8.81971e-08
-2.52672e-06
-4.00279e-07
-2.3201e-06
-7.07231e-07
-2.02716e-06
-9.91679e-07
-1.66047e-06
-1.22825e-06
-1.24307e-06
-1.38191e-06
-8.11369e-07
-1.40903e-06
-4.16464e-07
-1.2635e-06
-1.22271e-07
-9.10816e-07
-3.52706e-07
-1.39504e-07
4.88731e-07
-4.62691e-07
1.19463e-06
-8.86067e-07
1.61217e-06
-1.34401e-06
1.77829e-06
-1.78958e-06
1.75314e-06
-2.19146e-06
1.59394e-06
-2.52941e-06
1.3445e-06
-2.79021e-06
1.03421e-06
-2.96467e-06
6.81494e-07
-3.04578e-06
2.98274e-07
-3.02793e-06
-1.06052e-07
-2.907e-06
-5.21211e-07
-2.68148e-06
-9.32742e-07
-2.35477e-06
-1.31839e-06
-1.93865e-06
-1.64437e-06
-1.45782e-06
-1.86275e-06
-9.54269e-07
-1.91258e-06
-4.89599e-07
-1.72817e-06
-1.4263e-07
-1.25779e-06
-4.95336e-07
-1.608e-07
6.4953e-07
-5.33739e-07
1.56757e-06
-1.02012e-06
2.09855e-06
-1.54284e-06
2.30101e-06
-2.04836e-06
2.25865e-06
-2.50244e-06
2.04803e-06
-2.88419e-06
1.72626e-06
-3.18069e-06
1.3307e-06
-3.38304e-06
8.83847e-07
-3.484e-06
3.99239e-07
-3.47677e-06
-1.13284e-07
-3.35494e-06
-6.43048e-07
-3.11375e-06
-1.17392e-06
-2.7531e-06
-1.67905e-06
-2.28236e-06
-2.11511e-06
-1.72702e-06
-2.41808e-06
-1.1355e-06
-2.5041e-06
-5.8312e-07
-2.28055e-06
-1.68861e-07
-1.67204e-06
-6.64197e-07
-1.88007e-07
8.37537e-07
-6.2275e-07
2.00231e-06
-1.18576e-06
2.66156e-06
-1.78565e-06
2.9009e-06
-2.36116e-06
2.83417e-06
-2.8753e-06
2.56216e-06
-3.30721e-06
2.15817e-06
-3.64515e-06
1.66864e-06
-3.88137e-06
1.12007e-06
-4.00886e-06
5.26731e-07
-4.01958e-06
-1.02564e-07
-3.90407e-06
-7.58561e-07
-3.65274e-06
-1.42525e-06
-3.25954e-06
-2.07224e-06
-2.72865e-06
-2.64601e-06
-2.08415e-06
-3.06257e-06
-1.38097e-06
-3.20728e-06
-7.12264e-07
-2.94926e-06
-2.05832e-07
-2.17848e-06
-8.70029e-07
-2.23982e-07
1.06152e-06
-7.37845e-07
2.51617e-06
-1.39592e-06
3.31964e-06
-2.08845e-06
3.59343e-06
-2.74533e-06
3.49105e-06
-3.32736e-06
3.14419e-06
-3.81513e-06
2.64593e-06
-4.19962e-06
2.05314e-06
-4.4756e-06
1.39605e-06
-4.63727e-06
6.88405e-07
-4.6757e-06
-6.41393e-08
-4.57775e-06
-8.56514e-07
-4.32708e-06
-1.67592e-06
-3.9083e-06
-2.49102e-06
-3.31568e-06
-3.23862e-06
-2.56731e-06
-3.81095e-06
-1.72262e-06
-4.05197e-06
-8.97025e-07
-3.77485e-06
-2.60217e-07
-2.81528e-06
-1.13025e-06
-2.72436e-07
1.33396e-06
-8.88739e-07
3.13248e-06
-1.66474e-06
4.09563e-06
-2.46688e-06
4.39557e-06
-3.21536e-06
4.23953e-06
-3.87035e-06
3.79918e-06
-4.41626e-06
3.19183e-06
-4.84927e-06
2.48615e-06
-5.16884e-06
1.71563e-06
-5.37212e-06
8.91679e-07
-5.45025e-06
1.39961e-08
-5.38633e-06
-9.20438e-07
-5.15537e-06
-1.90688e-06
-4.72829e-06
-2.9181e-06
-4.08246e-06
-3.88445e-06
-3.22132e-06
-4.67209e-06
-2.20256e-06
-5.07073e-06
-1.16643e-06
-4.81098e-06
-3.42691e-07
-3.63903e-06
-1.47294e-06
-3.39019e-07
1.67297e-06
-1.08859e-06
3.88205e-06
-2.00905e-06
5.01609e-06
-2.93646e-06
5.32298e-06
-3.78171e-06
5.08478e-06
-4.50758e-06
4.52506e-06
-5.10616e-06
3.79041e-06
-5.58246e-06
2.96245e-06
-5.94378e-06
2.07694e-06
-6.19283e-06
1.14073e-06
-6.32292e-06
1.44088e-07
-6.31431e-06
-9.2905e-07
-6.13233e-06
-2.08885e-06
-5.72976e-06
-3.32068e-06
-5.05778e-06
-4.55643e-06
-4.0914e-06
-5.63846e-06
-2.87228e-06
-6.28985e-06
-1.5616e-06
-6.12166e-06
-4.70561e-07
-4.73007e-06
-1.9435e-06
-4.32742e-07
2.10572e-06
-1.3555e-06
4.80481e-06
-2.44784e-06
6.10843e-06
-3.50891e-06
6.38405e-06
-4.44362e-06
6.0195e-06
-5.22351e-06
5.30494e-06
-5.85425e-06
4.42115e-06
-6.35458e-06
3.46278e-06
-6.74369e-06
2.46605e-06
-7.03345e-06
1.43049e-06
-7.22261e-06
3.33249e-07
-7.29139e-06
-8.60267e-07
-7.19667e-06
-2.18357e-06
-6.87048e-06
-3.64686e-06
-6.22835e-06
-5.19857e-06
-5.19785e-06
-6.66897e-06
-3.77857e-06
-7.70913e-06
-2.13319e-06
-7.76703e-06
-6.70147e-07
-6.19312e-06
-2.61365e-06
-5.67944e-07
2.67366e-06
-1.71264e-06
5.9495e-06
-2.99672e-06
7.39252e-06
-4.17951e-06
7.56684e-06
-5.16985e-06
7.00983e-06
-5.95894e-06
6.09403e-06
-6.57457e-06
5.03678e-06
-7.0552e-06
3.94341e-06
-7.43633e-06
2.84718e-06
-7.74285e-06
1.73701e-06
-7.98321e-06
5.73611e-07
-8.14268e-06
-7.00798e-07
-8.17493e-06
-2.15132e-06
-7.99414e-06
-3.82765e-06
-7.47534e-06
-5.71737e-06
-6.47891e-06
-7.66539e-06
-4.92326e-06
-9.26479e-06
-2.9248e-06
-9.7655e-06
-9.7698e-07
-8.14093e-06
-3.59063e-06
-7.67073e-07
3.44073e-06
-2.1846e-06
7.36703e-06
-3.6511e-06
8.85902e-06
-4.89665e-06
8.81239e-06
-5.85724e-06
7.97041e-06
-6.56204e-06
6.79883e-06
-7.07221e-06
5.54695e-06
-7.45202e-06
4.32322e-06
-7.75639e-06
3.15155e-06
-8.0257e-06
2.00632e-06
-8.28184e-06
8.29753e-07
-8.5218e-06
-4.60839e-07
-8.70646e-06
-1.96667e-06
-8.74476e-06
-3.78935e-06
-8.47966e-06
-5.98246e-06
-7.69522e-06
-8.44983e-06
-6.18408e-06
-1.07759e-05
-3.9297e-06
-1.20199e-05
-1.42936e-06
-1.06413e-05
-5.01999e-06
-1.06414e-06
4.50487e-06
-2.78358e-06
9.08646e-06
-4.34511e-06
1.04206e-05
-5.49762e-06
9.9649e-06
-6.25223e-06
8.72503e-06
-6.70378e-06
7.25038e-06
-6.95886e-06
5.80204e-06
-7.11035e-06
4.4747e-06
-7.23105e-06
3.27226e-06
-7.37453e-06
2.1498e-06
-7.57613e-06
1.03135e-06
-7.85004e-06
-1.86926e-07
-8.17845e-06
-1.63826e-06
-8.4895e-06
-3.4783e-06
-8.62502e-06
-5.84695e-06
-8.3134e-06
-8.76145e-06
-7.19591e-06
-1.18934e-05
-5.00547e-06
-1.42103e-05
-2.04434e-06
-1.36024e-05
-7.06433e-06
-1.50371e-06
6.00858e-06
-3.46496e-06
1.10477e-05
-4.85656e-06
1.18122e-05
-5.58391e-06
1.06922e-05
-5.81897e-06
8.9601e-06
-5.75416e-06
7.18556e-06
-5.54549e-06
5.59337e-06
-5.30601e-06
4.23522e-06
-5.1141e-06
3.08035e-06
-5.02487e-06
2.06057e-06
-5.07931e-06
1.08579e-06
-5.30824e-06
4.2007e-08
-5.72709e-06
-1.21941e-06
-6.31465e-06
-2.89073e-06
-6.96723e-06
-5.19437e-06
-7.42714e-06
-8.30154e-06
-7.22096e-06
-1.20996e-05
-5.73453e-06
-1.56967e-05
-2.74975e-06
-1.65872e-05
-9.81408e-06
-2.10996e-06
8.11854e-06
-3.98031e-06
1.29181e-05
-4.58306e-06
1.24149e-05
-4.29019e-06
1.03994e-05
-3.54395e-06
8.21385e-06
-2.63893e-06
6.28055e-06
-1.75178e-06
4.70622e-06
-9.8154e-07
3.46498e-06
-3.82016e-07
2.48082e-06
1.38173e-08
1.66473e-06
1.76639e-07
9.22969e-07
6.92861e-08
1.4936e-07
-3.58015e-07
-7.92107e-07
-1.15834e-06
-2.09041e-06
-2.34688e-06
-4.00583e-06
-3.79963e-06
-6.84878e-06
-5.07599e-06
-1.08233e-05
-5.25151e-06
-1.55212e-05
-3.23743e-06
-1.86013e-05
-1.30515e-05
-2.7212e-06
1.08397e-05
-3.38254e-06
1.35794e-05
-1.99521e-06
1.10276e-05
1.34152e-07
8.27001e-06
2.31176e-06
6.03624e-06
4.25995e-06
4.33236e-06
5.88392e-06
3.08224e-06
7.16966e-06
2.17924e-06
8.13369e-06
1.51679e-06
8.79434e-06
1.00408e-06
9.15409e-06
5.63223e-07
9.18603e-06
1.17416e-07
8.82051e-06
-4.26585e-07
7.93422e-06
-1.20413e-06
6.35848e-06
-2.43009e-06
3.95474e-06
-4.44505e-06
8.53195e-07
-7.7217e-06
-2.06276e-06
-1.26053e-05
-2.7378e-06
-1.79262e-05
-1.57893e-05
-1.79792e-06
1.26377e-05
1.76624e-06
1.00152e-05
6.64165e-06
6.15216e-06
1.09447e-05
3.967e-06
1.43682e-05
2.61275e-06
1.69858e-05
1.71473e-06
1.89403e-05
1.12773e-06
2.03722e-05
7.47334e-07
2.13947e-05
4.94302e-07
2.20848e-05
3.14016e-07
2.24802e-05
1.67817e-07
2.25742e-05
2.33485e-08
2.23028e-05
-1.55093e-07
2.15182e-05
-4.19606e-07
1.9951e-05
-8.62889e-07
1.7181e-05
-1.675e-06
1.27357e-05
-3.27639e-06
6.59599e-06
-6.46558e-06
6.34073e-07
-1.19643e-05
-1.51552e-05
1.26377e-05
2.26529e-05
2.88051e-05
3.27721e-05
3.53848e-05
3.70995e-05
3.82273e-05
3.89746e-05
3.94689e-05
3.97829e-05
3.99507e-05
3.99741e-05
3.9819e-05
3.93994e-05
3.85365e-05
3.68615e-05
3.35851e-05
2.71195e-05
1.51552e-05
)
;

boundaryField
{
    movingWall
    {
        type            calculated;
        value           uniform 0;
    }
    fixedWalls
    {
        type            calculated;
        value           uniform 0;
    }
    frontAndBack
    {
        type            empty;
        value           nonuniform 0();
    }
}


// ************************************************************************* //
