/*--------------------------------*- C++ -*----------------------------------*\
  =========                 |
  \\      /  F ield         | OpenFOAM: The Open Source CFD Toolbox
   \\    /   O peration     | Website:  https://openfoam.org
    \\  /    A nd           | Version:  6
     \\/     M anipulation  |
\*---------------------------------------------------------------------------*/
FoamFile
{
    version     2.0;
    format      ascii;
    class       volScalarField;
    location    "0.135";
    object      p;
}
// * * * * * * * * * * * * * * * * * * * * * * * * * * * * * * * * * * * * * //

dimensions      [0 2 -2 0 0 0 0];

internalField   nonuniform List<scalar> 
400
(
1.10603e-05
-0.0231787
-0.0520578
-0.0743128
-0.0826339
-0.0737474
-0.0474085
-0.00555081
0.0484026
0.110055
0.174436
0.236355
0.290743
0.333042
0.359662
0.368571
0.360027
0.337443
0.30834
0.285157
0.0229973
-0.000832862
-0.0234954
-0.038839
-0.0432688
-0.0344863
-0.0121938
0.0222152
0.0661455
0.116176
0.168382
0.21864
0.262943
0.297733
0.320274
0.329088
0.324477
0.30885
0.285992
0.262203
0.0535449
0.0205236
-0.0039979
-0.0181493
-0.0217493
-0.0135462
0.00643881
0.0368565
0.0754364
0.119253
0.164959
0.209033
0.248038
0.2789
0.29919
0.307456
0.303671
0.289192
0.264419
0.231429
0.0816309
0.0359501
0.00545936
-0.0106777
-0.0150749
-0.00740761
0.011828
0.0410388
0.0779453
0.119774
0.163411
0.205587
0.243078
0.27292
0.292627
0.300457
0.295878
0.279326
0.248452
0.202714
0.100739
0.041682
0.00404163
-0.0149401
-0.0202701
-0.0124463
0.00751331
0.0376443
0.075493
0.118258
0.162876
0.206139
0.24484
0.275928
0.296667
0.304869
0.299426
0.279943
0.24172
0.182404
0.106193
0.033489
-0.0116076
-0.0333574
-0.0389543
-0.0296781
-0.00711742
0.0262941
0.0678081
0.114468
0.163129
0.210512
0.253287
0.288168
0.312017
0.322064
0.316545
0.294246
0.248305
0.174981
0.0939353
0.00717561
-0.045252
-0.0689931
-0.0734719
-0.0608151
-0.0332729
0.00614979
0.0543147
0.108024
0.163973
0.218731
0.268754
0.31041
0.340033
0.354121
0.350114
0.325874
0.272288
0.184339
0.0596352
-0.0418455
-0.101088
-0.125296
-0.126464
-0.107771
-0.072287
-0.0237028
0.0343832
0.0984976
0.16516
0.230777
0.291564
0.343487
0.382235
0.403409
0.403428
0.378964
0.318232
0.21474
-0.0020335
-0.119161
-0.184199
-0.206414
-0.20107
-0.172786
-0.125688
-0.0642857
0.0073264
0.0854282
0.166429
0.246646
0.322111
0.388392
0.44046
0.472816
0.480545
0.458645
0.391843
0.271604
-0.0980945
-0.231965
-0.300931
-0.317319
-0.300872
-0.258259
-0.194992
-0.116529
-0.0274421
0.0684208
0.16753
0.266302
0.36075
0.446155
0.516749
0.565741
0.586452
0.571473
0.500656
0.362314
-0.238212
-0.389864
-0.459312
-0.463855
-0.429678
-0.366404
-0.28132
-0.180926
-0.0701423
0.0473103
0.168279
0.289615
0.40764
0.517603
0.613118
0.685957
0.727182
0.725916
0.654927
0.497283
-0.436295
-0.606081
-0.66957
-0.652668
-0.591116
-0.498696
-0.38485
-0.257055
-0.120259
0.0223944
0.168639
0.316296
0.462525
0.603038
0.731179
0.83733
0.909831
0.932949
0.868956
0.691729
-0.713576
-0.899394
-0.944695
-0.89086
-0.787848
-0.654979
-0.503983
-0.342909
-0.176066
-0.00527725
0.168825
0.345792
0.524423
0.701708
0.871483
1.02321
1.14233
1.20671
1.16313
0.968979
-1.10503
-1.29728
-1.30073
-1.18487
-1.02002
-0.831981
-0.634157
-0.434035
-0.234059
-0.0336099
0.169338
0.377066
0.59109
0.810929
1.0323
1.24505
1.43244
1.56486
1.56721
1.36721
-1.67261
-1.84051
-1.7557
-1.53745
-1.28214
-1.02083
-0.766124
-0.52248
-0.288413
-0.059282
0.170842
0.408125
0.658107
0.924548
1.20734
1.49951
1.78483
2.02755
2.12494
1.95307
-2.52803
-2.58722
-2.32553
-1.94251
-1.55886
-1.20423
-0.884439
-0.596183
-0.330896
-0.0779546
0.173772
0.435421
0.717887
1.03123
1.38288
1.77418
2.19597
2.6132
2.89778
2.84435
-3.87299
-3.61304
-3.01649
-2.38085
-1.82324
-1.35641
-0.968435
-0.640391
-0.352255
-0.0853268
0.177712
0.453633
0.759665
1.11426
1.53689
2.04545
2.64949
3.33064
3.96436
4.24909
-6.1594
-5.01373
-3.78643
-2.79027
-2.01927
-1.43416
-0.988411
-0.636621
-0.342535
-0.0781272
0.17994
0.453522
0.765976
1.14533
1.62784
2.25901
3.08471
4.13979
5.42507
6.62752
-10.5695
-6.84898
-4.35763
-2.91496
-1.96811
-1.32304
-0.875099
-0.545541
-0.2824
-0.0515896
0.172441
0.412784
0.69503
1.05335
1.53993
2.23475
3.24505
4.76456
7.34526
11.1677
-17.9825
-8.61119
-4.1544
-2.37804
-1.46162
-0.918353
-0.578353
-0.344491
-0.163415
-0.00552531
0.148974
0.317278
0.519137
0.783961
1.1648
1.76026
2.7477
4.62119
9.19197
18.678
)
;

boundaryField
{
    movingWall
    {
        type            zeroGradient;
    }
    fixedWalls
    {
        type            zeroGradient;
    }
    frontAndBack
    {
        type            empty;
    }
}


// ************************************************************************* //
