/*--------------------------------*- C++ -*----------------------------------*\
  =========                 |
  \\      /  F ield         | OpenFOAM: The Open Source CFD Toolbox
   \\    /   O peration     | Website:  https://openfoam.org
    \\  /    A nd           | Version:  6
     \\/     M anipulation  |
\*---------------------------------------------------------------------------*/
FoamFile
{
    version     2.0;
    format      ascii;
    class       volScalarField;
    location    "0.08";
    object      p;
}
// * * * * * * * * * * * * * * * * * * * * * * * * * * * * * * * * * * * * * //

dimensions      [0 2 -2 0 0 0 0];

internalField   nonuniform List<scalar> 
400
(
1.18909e-08
-0.000271867
-0.000403674
-0.00028881
7.58102e-05
0.000674813
0.0014862
0.00248327
0.00363461
0.00490277
0.00624317
0.00760375
0.0089256
0.0101445
0.0111934
0.0120075
0.012532
0.012733
0.0126175
0.0123217
0.000271103
-9.49832e-06
-9.53892e-05
4.68345e-05
0.000402773
0.000967333
0.00172809
0.00266407
0.00374747
0.00494344
0.00620963
0.00749621
0.00874672
0.00989997
0.0108933
0.0116682
0.0121805
0.0124074
0.0123374
0.0120306
0.000410807
5.39802e-05
-4.47538e-05
9.97904e-05
0.000449028
0.000998448
0.00173927
0.0026536
0.00371629
0.00489462
0.00614772
0.00742657
0.0086748
0.00983054
0.0108297
0.0116122
0.0121327
0.0123663
0.0122769
0.0118816
0.000300809
-0.000134632
-0.000264271
-0.000126478
0.000222005
0.000774542
0.00152339
0.00245223
0.00353775
0.00474869
0.00604482
0.00737658
0.00868549
0.00990565
0.0109669
0.0118013
0.0123555
0.0125965
0.0124696
0.0119787
-8.85717e-05
-0.000591493
-0.000750461
-0.00061652
-0.000259284
0.000312959
0.00109325
0.00206666
0.00321145
0.00449757
0.00588501
0.00732277
0.0087486
0.0100899
0.0112663
0.0121971
0.0128161
0.0130787
0.0129165
0.0123336
-0.000778474
-0.00134871
-0.00153546
-0.00139934
-0.00102165
-0.000412119
0.000423263
0.00147112
0.00271153
0.00411588
0.00564443
0.00724443
0.00884871
0.0103754
0.0117298
0.0128124
0.013537
0.0138429
0.0136458
0.0129575
-0.00179542
-0.0024431
-0.00265858
-0.00251357
-0.00210322
-0.00143897
-0.000525618
0.000625537
0.00199711
0.00356277
0.00528394
0.00710669
0.00895873
0.010747
0.0123579
0.013665
0.0145523
0.0149326
0.0146985
0.013872
-0.00317726
-0.00391983
-0.00416702
-0.00400637
-0.00355152
-0.00281652
-0.00180458
-0.000524081
0.00101137
0.00277937
0.00474447
0.00685365
0.00903088
0.0111715
0.0131385
0.0147689
0.0159016
0.0164056
0.0161314
0.0151122
-0.00497743
-0.00583886
-0.00612225
-0.00593875
-0.005428
-0.00460806
-0.00348013
-0.00204857
-0.000321485
0.00168506
0.0039421
0.00640159
0.00898808
0.0115879
0.0140384
0.0161288
0.0176315
0.0183411
0.0180289
0.0167304
-0.00726892
-0.00828038
-0.00860453
-0.0083888
-0.00781004
-0.00689256
-0.00563504
-0.00403658
-0.00209787
0.000174387
0.00276227
0.00562947
0.00870963
0.0118886
0.0149819
0.017722
0.0197869
0.0208467
0.0205188
0.0188047
-0.0101508
-0.0113522
-0.0117184
-0.0114547
-0.0107924
-0.00976491
-0.00836776
-0.00659359
-0.00443411
-0.00188385
0.00105558
0.00436875
0.00801262
0.011891
0.0158145
0.0194619
0.0223877
0.0240607
0.0238001
0.0214638
-0.0137614
-0.0152021
-0.0156007
-0.0152585
-0.014488
-0.0133348
-0.0117893
-0.00983718
-0.00746068
-0.00464116
-0.0013599
0.00239835
0.0066332
0.0112984
0.0162417
0.0211236
0.0253678
0.028137
0.0281886
0.0249644
-0.0183058
-0.0200404
-0.0204318
-0.0199498
-0.0190276
-0.0177222
-0.0160152
-0.0138845
-0.0113058
-0.00824984
-0.0046787
-0.000540953
0.00422483
0.00966603
0.0157463
0.0222152
0.0284444
0.0331904
0.0341952
0.0299118
-0.0241143
-0.0261782
-0.0264501
-0.0257056
-0.0245516
-0.0230438
-0.0211444
-0.0188241
-0.0160575
-0.0128147
-0.0090492
-0.00468091
0.00041863
0.00642867
0.0135378
0.0218097
0.030861
0.0390908
0.0425738
0.0377431
-0.0317728
-0.034094
-0.0339565
-0.0327093
-0.0311793
-0.0293723
-0.0272087
-0.0246512
-0.0216835
-0.018292
-0.0144445
-0.0100606
-0.00497224
0.00112731
0.00873853
0.0185565
0.031074
0.0448815
0.053962
0.0512492
-0.0424143
-0.044538
-0.0432706
-0.0410625
-0.038905
-0.0366185
-0.0340401
-0.0311243
-0.0278749
-0.0243131
-0.0204481
-0.01624
-0.0115403
-0.00598088
0.00123789
0.0116705
0.0274642
0.0487511
0.0684078
0.0745787
-0.0584208
-0.0586477
-0.0545579
-0.0505523
-0.0473214
-0.0442283
-0.0409714
-0.0374897
-0.0338063
-0.0299758
-0.0260512
-0.0220442
-0.0178525
-0.0130937
-0.00672945
0.00363382
0.0221649
0.0521953
0.0886778
0.115161
-0.0856691
-0.0776829
-0.0670749
-0.0598127
-0.0547505
-0.0504109
-0.0462448
-0.0420958
-0.0379417
-0.0338198
-0.0297777
-0.0258186
-0.0217997
-0.0171955
-0.0105767
0.00133897
0.0246471
0.0668804
0.129628
0.19468
-0.141701
-0.100253
-0.0743235
-0.0623854
-0.0556743
-0.0506069
-0.0462214
-0.0421252
-0.0381263
-0.0341844
-0.0303074
-0.026434
-0.022271
-0.0169558
-0.00835287
0.0082073
0.0414696
0.104716
0.21227
0.354073
-0.26694
-0.116231
-0.0596397
-0.0474115
-0.0434831
-0.0405932
-0.0382158
-0.0359477
-0.0334539
-0.0306754
-0.0276572
-0.0243446
-0.0203693
-0.0146547
-0.00460551
0.01553
0.0576011
0.144499
0.310403
0.576981
)
;

boundaryField
{
    movingWall
    {
        type            zeroGradient;
    }
    fixedWalls
    {
        type            zeroGradient;
    }
    frontAndBack
    {
        type            empty;
    }
}


// ************************************************************************* //
