/*--------------------------------*- C++ -*----------------------------------*\
  =========                 |
  \\      /  F ield         | OpenFOAM: The Open Source CFD Toolbox
   \\    /   O peration     | Website:  https://openfoam.org
    \\  /    A nd           | Version:  6
     \\/     M anipulation  |
\*---------------------------------------------------------------------------*/
FoamFile
{
    version     2.0;
    format      ascii;
    class       volVectorField;
    location    "0.08";
    object      U;
}
// * * * * * * * * * * * * * * * * * * * * * * * * * * * * * * * * * * * * * //

dimensions      [0 1 -1 0 0 0 0];

internalField   nonuniform List<vector> 
400
(
(-2.37395e-05 2.22774e-05 0)
(-0.000558841 0.000360956 0)
(-0.00183238 0.000562192 0)
(-0.00340544 0.000618268 0)
(-0.00498825 0.000596537 0)
(-0.00645103 0.000537597 0)
(-0.0077269 0.000458152 0)
(-0.00877141 0.000363737 0)
(-0.00954872 0.000255937 0)
(-0.0100271 0.000135682 0)
(-0.0101788 4.51477e-06 0)
(-0.00998192 -0.000134931 0)
(-0.00942339 -0.000278617 0)
(-0.0085025 -0.000420569 0)
(-0.00723706 -0.000551577 0)
(-0.00567362 -0.000656162 0)
(-0.00390556 -0.000706492 0)
(-0.00211342 -0.00065232 0)
(-0.000655287 -0.000422854 0)
(-3.46924e-05 -3.64622e-05 0)
(-0.000366435 0.000554983 0)
(-0.00198279 0.0019514 0)
(-0.00491223 0.00274515 0)
(-0.00834807 0.00297475 0)
(-0.0117756 0.00286879 0)
(-0.0149412 0.00258093 0)
(-0.0176936 0.00218515 0)
(-0.0199281 0.00171225 0)
(-0.0215651 0.00117553 0)
(-0.0225397 0.000583958 0)
(-0.0227999 -5.21153e-05 0)
(-0.0223086 -0.000718384 0)
(-0.0210487 -0.00139466 0)
(-0.01903 -0.00205208 0)
(-0.0163015 -0.00264734 0)
(-0.0129714 -0.00311075 0)
(-0.00923495 -0.00332552 0)
(-0.00542933 -0.00310255 0)
(-0.00218009 -0.00220372 0)
(-0.000398743 -0.000629537 0)
(-0.000602268 0.00187065 0)
(-0.00295631 0.00493176 0)
(-0.00696322 0.00657747 0)
(-0.0115368 0.00704282 0)
(-0.0160478 0.00677318 0)
(-0.020195 0.00608041 0)
(-0.0237893 0.00512746 0)
(-0.0266966 0.00398952 0)
(-0.0288154 0.00270367 0)
(-0.030065 0.00129582 0)
(-0.0303816 -0.000206778 0)
(-0.0297206 -0.00176926 0)
(-0.0280619 -0.00334413 0)
(-0.0254191 -0.00486439 0)
(-0.0218547 -0.0062307 0)
(-0.0175054 -0.00728697 0)
(-0.0126131 -0.00778136 0)
(-0.00758273 -0.00732941 0)
(-0.00318405 -0.00546849 0)
(-0.000635782 -0.00204263 0)
(-0.000730847 0.00362773 0)
(-0.00355376 0.00872599 0)
(-0.00829573 0.0113321 0)
(-0.0136405 0.0120237 0)
(-0.0188694 0.011522 0)
(-0.023657 0.0103217 0)
(-0.027799 0.00868565 0)
(-0.0311497 0.00673952 0)
(-0.0335983 0.00454796 0)
(-0.0350557 0.00215649 0)
(-0.0354492 -0.000388746 0)
(-0.0347248 -0.00303031 0)
(-0.0328524 -0.00569036 0)
(-0.0298369 -0.00825835 0)
(-0.0257375 -0.0105696 0)
(-0.0206983 -0.0123663 0)
(-0.014986 -0.0132381 0)
(-0.00905862 -0.0125685 0)
(-0.00382065 -0.00960531 0)
(-0.00076397 -0.00390387 0)
(-0.000819522 0.00563856 0)
(-0.00400562 0.0130537 0)
(-0.00935285 0.0167079 0)
(-0.0153461 0.0176135 0)
(-0.021181 0.0168269 0)
(-0.0265103 0.0150503 0)
(-0.0311221 0.0126551 0)
(-0.0348663 0.00981947 0)
(-0.0376285 0.00663536 0)
(-0.0393134 0.00316615 0)
(-0.0398385 -0.000525833 0)
(-0.0391348 -0.00436354 0)
(-0.0371524 -0.00824069 0)
(-0.0338737 -0.0120021 0)
(-0.0293385 -0.0154107 0)
(-0.0236848 -0.0180911 0)
(-0.0171996 -0.0194455 0)
(-0.0104065 -0.0185781 0)
(-0.00437104 -0.0143773 0)
(-0.000862611 -0.00603916 0)
(-0.000911297 0.00787401 0)
(-0.00447303 0.0178857 0)
(-0.010452 0.0226943 0)
(-0.01713 0.0238138 0)
(-0.0236091 0.0226953 0)
(-0.0295179 0.0202793 0)
(-0.0346388 0.0170573 0)
(-0.0388219 0.0132629 0)
(-0.0419526 0.00901336 0)
(-0.0439311 0.00438548 0)
(-0.044663 -0.000548644 0)
(-0.0440578 -0.00569954 0)
(-0.0420343 -0.0109385 0)
(-0.0385358 -0.0160673 0)
(-0.0335636 -0.0207684 0)
(-0.0272334 -0.0245246 0)
(-0.019849 -0.0265046 0)
(-0.0120205 -0.0254637 0)
(-0.00502679 -0.0198491 0)
(-0.000979192 -0.0084574 0)
(-0.00102781 0.0103748 0)
(-0.00504681 0.0233022 0)
(-0.0117809 0.0293888 0)
(-0.0192724 0.0307242 0)
(-0.0265126 0.0292208 0)
(-0.0331037 0.0260947 0)
(-0.0388264 0.0219737 0)
(-0.0435359 0.0171501 0)
(-0.0471228 0.0117641 0)
(-0.0494862 0.00589848 0)
(-0.0505197 -0.000375184 0)
(-0.0501058 -0.00696766 0)
(-0.0481184 -0.01374 0)
(-0.0444402 -0.0204575 0)
(-0.0390057 -0.026715 0)
(-0.0318801 -0.0318212 0)
(-0.0233694 -0.0346432 0)
(-0.0141905 -0.0334834 0)
(-0.00591762 -0.0262342 0)
(-0.00113993 -0.0112497 0)
(-0.00118166 0.0132164 0)
(-0.00578318 0.0294465 0)
(-0.0134576 0.0369508 0)
(-0.0219441 0.0384942 0)
(-0.0300998 0.0365341 0)
(-0.0375011 0.0326101 0)
(-0.0439343 0.0275061 0)
(-0.0492697 0.0215785 0)
(-0.0534128 0.0149863 0)
(-0.0562694 0.00780873 0)
(-0.0577248 0.000101106 0)
(-0.0576309 -0.00806762 0)
(-0.0558029 -0.0165703 0)
(-0.0520348 -0.0251528 0)
(-0.0461509 -0.0333221 0)
(-0.0381146 -0.040175 0)
(-0.0281932 -0.0441809 0)
(-0.0172179 -0.043029 0)
(-0.00717587 -0.0338763 0)
(-0.00136844 -0.0145635 0)
(-0.00138489 0.0165005 0)
(-0.00673314 0.0365112 0)
(-0.0155836 0.0455865 0)
(-0.0252828 0.0473057 0)
(-0.0345245 0.0447841 0)
(-0.0428654 0.0399467 0)
(-0.0501117 0.0337593 0)
(-0.0561654 0.0266486 0)
(-0.0609631 0.0187882 0)
(-0.0644323 0.0102407 0)
(-0.0664602 0.00102371 0)
(-0.0668707 -0.00884419 0)
(-0.0654088 -0.0192845 0)
(-0.0617457 -0.0300605 0)
(-0.0555331 -0.0406092 0)
(-0.046543 -0.0497818 0)
(-0.034911 -0.0555223 0)
(-0.0215485 -0.0546569 0)
(-0.00900969 -0.0432939 0)
(-0.00170379 -0.0186211 0)
(-0.00165555 0.0203598 0)
(-0.00796525 0.0447415 0)
(-0.0182843 0.0555437 0)
(-0.0294447 0.0573605 0)
(-0.0399446 0.0541203 0)
(-0.0493365 0.0482141 0)
(-0.0574717 0.0408221 0)
(-0.0643089 0.0324489 0)
(-0.0698416 0.0232774 0)
(-0.0740426 0.013338 0)
(-0.0768229 0.00258334 0)
(-0.0779924 -0.00905978 0)
(-0.0772241 -0.0216194 0)
(-0.0740339 -0.0349448 0)
(-0.0678189 -0.048461 0)
(-0.0580162 -0.0607699 0)
(-0.0444408 -0.069138 0)
(-0.027945 -0.0691465 0)
(-0.0118136 -0.05529 0)
(-0.00223 -0.0237819 0)
(-0.00202564 0.0249751 0)
(-0.00958929 0.0544538 0)
(-0.0217442 0.0671168 0)
(-0.0346422 0.0688714 0)
(-0.0465551 0.0646747 0)
(-0.0570657 0.0574886 0)
(-0.0661095 0.0487445 0)
(-0.0737391 0.0390333 0)
(-0.0800399 0.0285416 0)
(-0.0850665 0.0172508 0)
(-0.0887898 0.00501852 0)
(-0.0910405 -0.00837255 0)
(-0.0914412 -0.0231388 0)
(-0.089339 -0.0393316 0)
(-0.0837889 -0.056496 0)
(-0.0736873 -0.0730632 0)
(-0.0581876 -0.0854953 0)
(-0.0377187 -0.0875758 0)
(-0.0163607 -0.071159 0)
(-0.00313745 -0.0306919 0)
(-0.00255496 0.0306109 0)
(-0.0117909 0.0660704 0)
(-0.0262482 0.080655 0)
(-0.0411744 0.0820464 0)
(-0.0546013 0.0765343 0)
(-0.0662083 0.067779 0)
(-0.0760757 0.0575014 0)
(-0.0843986 0.046384 0)
(-0.0913999 0.0346112 0)
(-0.097263 0.0221017 0)
(-0.102073 0.00858963 0)
(-0.105745 -0.00634059 0)
(-0.107915 -0.0231958 0)
(-0.107799 -0.0424027 0)
(-0.104057 -0.063876 0)
(-0.0948053 -0.0861338 0)
(-0.0780025 -0.104856 0)
(-0.0529039 -0.111341 0)
(-0.0240818 -0.0930131 0)
(-0.00484119 -0.0406053 0)
(-0.00335809 0.0376827 0)
(-0.0148883 0.080173 0)
(-0.0322312 0.0965601 0)
(-0.0494395 0.0970488 0)
(-0.0643422 0.0896837 0)
(-0.0768406 0.0789642 0)
(-0.0872468 0.0669261 0)
(-0.0959581 0.0543408 0)
(-0.103386 0.0413831 0)
(-0.109896 0.0279008 0)
(-0.115753 0.0134898 0)
(-0.121048 -0.00250437 0)
(-0.12555 -0.0209806 0)
(-0.128475 -0.0429606 0)
(-0.128154 -0.0691267 0)
(-0.121747 -0.0986371 0)
(-0.105365 -0.126798 0)
(-0.0758723 -0.141843 0)
(-0.0372263 -0.12403 0)
(-0.00814828 -0.0559206 0)
(-0.00465682 0.0468847 0)
(-0.0194223 0.0975676 0)
(-0.0403123 0.115237 0)
(-0.0598535 0.113887 0)
(-0.0758444 0.103877 0)
(-0.088636 0.0906602 0)
(-0.0988935 0.0765765 0)
(-0.107285 0.0624612 0)
(-0.114457 0.0484664 0)
(-0.121001 0.0343683 0)
(-0.127418 0.0196318 0)
(-0.134064 0.0033609 0)
(-0.141002 -0.0157956 0)
(-0.147688 -0.0396687 0)
(-0.152411 -0.0702173 0)
(-0.151497 -0.108143 0)
(-0.138753 -0.149437 0)
(-0.107261 -0.179401 0)
(-0.0581572 -0.16795 0)
(-0.0143267 -0.0806851 0)
(-0.00687541 0.0594257 0)
(-0.0262698 0.11932 0)
(-0.0511949 0.136894 0)
(-0.0724197 0.132122 0)
(-0.0882282 0.118328 0)
(-0.099833 0.101921 0)
(-0.108419 0.0854466 0)
(-0.114998 0.069742 0)
(-0.120483 0.0549006 0)
(-0.12569 0.0406217 0)
(-0.13135 0.0262657 0)
(-0.13811 0.0107458 0)
(-0.146435 -0.00771091 0)
(-0.156315 -0.03185 0)
(-0.166546 -0.0653721 0)
(-0.173341 -0.111621 0)
(-0.168639 -0.169063 0)
(-0.141162 -0.221743 0)
(-0.0863252 -0.22738 0)
(-0.0245065 -0.120778 0)
(-0.0107875 0.0774815 0)
(-0.0366775 0.146581 0)
(-0.0650033 0.160903 0)
(-0.0851744 0.150097 0)
(-0.0973759 0.130962 0)
(-0.104409 0.110558 0)
(-0.108184 0.091395 0)
(-0.110106 0.0741507 0)
(-0.111322 0.058763 0)
(-0.11278 0.0448083 0)
(-0.115307 0.0315598 0)
(-0.119695 0.0178308 0)
(-0.126734 0.00158507 0)
(-0.137092 -0.0206908 0)
(-0.150736 -0.05454 0)
(-0.16524 -0.106773 0)
(-0.172785 -0.180568 0)
(-0.159313 -0.262596 0)
(-0.112234 -0.300696 0)
(-0.0370715 -0.183862 0)
(-0.0176438 0.1052 0)
(-0.0516919 0.179405 0)
(-0.0784892 0.183573 0)
(-0.08932 0.162714 0)
(-0.0898976 0.136585 0)
(-0.0855815 0.111831 0)
(-0.0790122 0.090299 0)
(-0.0718173 0.0721567 0)
(-0.0651311 0.0569715 0)
(-0.0597431 0.0440881 0)
(-0.056265 0.0326829 0)
(-0.0553049 0.0215839 0)
(-0.057646 0.00879848 0)
(-0.0644284 -0.00937723 0)
(-0.0771167 -0.0395638 0)
(-0.0963303 -0.0917155 0)
(-0.118256 -0.175504 0)
(-0.130576 -0.286475 0)
(-0.11266 -0.372638 0)
(-0.0423621 -0.273607 0)
(-0.0284805 0.150707 0)
(-0.0681742 0.211831 0)
(-0.073881 0.19101 0)
(-0.0552934 0.156367 0)
(-0.0298425 0.124331 0)
(-0.00439408 0.0975469 0)
(0.0190572 0.0761008 0)
(0.0396525 0.0592773 0)
(0.0570284 0.0461078 0)
(0.0711287 0.0356585 0)
(0.0819909 0.0270502 0)
(0.0895471 0.0192799 0)
(0.0933826 0.0108136 0)
(0.09233 -0.00124141 0)
(0.0838562 -0.0226076 0)
(0.0638236 -0.0636994 0)
(0.0285355 -0.139788 0)
(-0.0187687 -0.261892 0)
(-0.0540729 -0.397176 0)
(-0.0179437 -0.36176 0)
(-0.0299654 0.219223 0)
(-0.0438004 0.218762 0)
(0.0245987 0.15723 0)
(0.0998319 0.114949 0)
(0.16183 0.0854256 0)
(0.211325 0.063356 0)
(0.250991 0.0469813 0)
(0.282599 0.0350625 0)
(0.307557 0.0264046 0)
(0.327098 0.020025 0)
(0.342179 0.0151571 0)
(0.353381 0.0111094 0)
(0.360731 0.00702713 0)
(0.363288 0.00145936 0)
(0.358241 -0.008497 0)
(0.339475 -0.0289357 0)
(0.296144 -0.0728913 0)
(0.215235 -0.164183 0)
(0.107983 -0.307799 0)
(0.0780176 -0.35501 0)
(0.26185 0.133787 0)
(0.324598 0.119362 0)
(0.446382 0.0801924 0)
(0.54558 0.0541003 0)
(0.611214 0.0373439 0)
(0.655467 0.0258361 0)
(0.686878 0.0178424 0)
(0.709648 0.0123803 0)
(0.726281 0.0086886 0)
(0.738542 0.00618941 0)
(0.74763 0.00446517 0)
(0.75423 0.00319622 0)
(0.758485 0.00208015 0)
(0.759775 0.000717533 0)
(0.756044 -0.00159186 0)
(0.742537 -0.00624726 0)
(0.708711 -0.0165315 0)
(0.635336 -0.0401289 0)
(0.483651 -0.0974978 0)
(0.356504 -0.147404 0)
)
;

boundaryField
{
    movingWall
    {
        type            fixedValue;
        value           uniform (1 0 0);
    }
    fixedWalls
    {
        type            noSlip;
    }
    frontAndBack
    {
        type            empty;
    }
}


// ************************************************************************* //
