/*--------------------------------*- C++ -*----------------------------------*\
  =========                 |
  \\      /  F ield         | OpenFOAM: The Open Source CFD Toolbox
   \\    /   O peration     | Website:  https://openfoam.org
    \\  /    A nd           | Version:  6
     \\/     M anipulation  |
\*---------------------------------------------------------------------------*/
FoamFile
{
    version     2.0;
    format      ascii;
    class       volScalarField;
    location    "0.045";
    object      p;
}
// * * * * * * * * * * * * * * * * * * * * * * * * * * * * * * * * * * * * * //

dimensions      [0 2 -2 0 0 0 0];

internalField   nonuniform List<scalar> 
400
(
2.67202e-05
-0.0580309
-0.130335
-0.186194
-0.207151
-0.184905
-0.118833
-0.0138462
0.121375
0.275715
0.436678
0.591286
0.726943
0.832371
0.898723
0.92099
0.899811
0.843624
0.771094
0.713031
0.0575811
-0.00206832
-0.0588283
-0.0973821
-0.108583
-0.0865954
-0.030672
0.0556365
0.165738
0.290977
0.421483
0.546951
0.657425
0.744115
0.800287
0.822306
0.810923
0.772085
0.71513
0.655518
0.134071
0.0514414
-0.0100007
-0.0456066
-0.0547374
-0.0341723
0.0160282
0.0924122
0.189186
0.298924
0.413192
0.523187
0.620385
0.697213
0.747719
0.768348
0.759032
0.723098
0.661404
0.578804
0.204742
0.0903874
0.0139356
-0.0266966
-0.0378162
-0.0185157
0.029936
0.103444
0.196156
0.300995
0.410095
0.515281
0.608575
0.682713
0.731638
0.751102
0.739801
0.698754
0.621918
0.507505
0.25341
0.105444
0.0109839
-0.0368212
-0.0502202
-0.0303674
0.0201247
0.0961769
0.191446
0.298742
0.410296
0.51809
0.61421
0.691219
0.742491
0.762722
0.749211
0.700904
0.605862
0.457636
0.268512
0.0861391
-0.0271432
-0.0819002
-0.0958241
-0.0720466
-0.0146713
0.0699665
0.174708
0.291916
0.413585
0.531516
0.637519
0.723626
0.78229
0.806838
0.792991
0.737685
0.623559
0.440566
0.240022
0.022069
-0.109761
-0.169456
-0.180292
-0.147572
-0.0771509
0.0230907
0.144914
0.28
0.4199
0.556036
0.679718
0.782194
0.854695
0.888846
0.87848
0.818286
0.6853
0.466156
0.157167
-0.0982145
-0.247315
-0.307998
-0.31003
-0.261443
-0.170283
-0.0463046
0.100967
0.262427
0.429135
0.592099
0.742072
0.86939
0.963813
1.01488
1.01403
0.953095
0.802507
0.545112
0.00655535
-0.288767
-0.452556
-0.507838
-0.492714
-0.418972
-0.297507
-0.140318
0.0416587
0.238584
0.44118
0.640221
0.82605
0.988118
1.11455
1.19237
1.20987
1.15491
0.989355
0.690919
-0.229643
-0.567831
-0.741511
-0.781433
-0.737176
-0.625913
-0.462266
-0.260863
-0.0340243
0.207962
0.455899
0.700793
0.932993
1.14134
1.31231
1.42995
1.47847
1.43996
1.26443
0.921766
-0.576152
-0.959902
-1.13459
-1.14355
-1.05294
-0.887679
-0.667175
-0.408943
-0.126383
0.170404
0.473094
0.773765
1.06357
1.33137
1.5623
1.73713
1.83479
1.8291
1.65287
1.26313
-1.06872
-1.49884
-1.65793
-1.61117
-1.44929
-1.20809
-0.91279
-0.583644
-0.234308
0.126456
0.492485
0.858253
1.21703
1.55889
1.86849
2.12342
2.29625
2.34922
2.18962
1.75206
-1.762
-2.23277
-2.34488
-2.20269
-1.9334
-1.58731
-1.19576
-0.780714
-0.354358
0.0777966
0.513653
0.95199
1.39014
1.8214
2.23173
2.59668
2.88207
3.03481
2.92441
2.44532
-2.74581
-3.23204
-3.23677
-2.9352
-2.50663
-2.01828
-1.50605
-0.990647
-0.479602
0.0277239
0.535899
1.05051
1.57561
2.11074
2.64652
3.15959
3.61068
3.92882
3.92987
3.43591
-4.17854
-4.60075
-4.38018
-3.81697
-3.15677
-2.48066
-1.82277
-1.19613
-0.598293
-0.0184279
0.557875
1.1459
1.75966
2.40911
3.0951
3.80206
4.49228
5.07995
5.31309
4.88692
-6.34412
-6.48667
-5.8168
-4.83462
-3.84755
-2.93377
-2.11025
-1.37025
-0.693297
-0.0533655
0.577064
1.22571
1.91985
2.68495
3.54034
4.4908
5.51602
6.53242
7.22514
7.08837
-9.75169
-9.08101
-7.56417
-5.94214
-4.51389
-3.31576
-2.31964
-1.47902
-0.744363
-0.0692304
0.589495
1.27362
2.02618
2.89336
3.92416
5.16404
6.63872
8.30627
9.86024
10.5557
-15.5364
-12.6255
-9.51763
-6.9847
-5.01684
-3.51979
-2.37769
-1.47699
-0.727169
-0.0582674
0.587958
1.26604
2.03423
2.9625
4.14137
5.68449
7.70707
10.2989
13.4647
16.4325
-26.6562
-17.272
-10.9829
-7.32162
-4.90822
-3.25889
-2.11012
-1.26424
-0.591306
-0.00618552
0.554902
1.14956
1.8416
2.71624
3.90367
5.60276
8.07961
11.8177
18.1961
27.6823
-45.2701
-21.7485
-10.5222
-6.00944
-3.66575
-2.26886
-1.38834
-0.780179
-0.31128
0.0920912
0.479249
0.893041
1.38273
2.02187
2.94324
4.39234
6.80708
11.417
22.7573
46.3937
)
;

boundaryField
{
    movingWall
    {
        type            zeroGradient;
    }
    fixedWalls
    {
        type            zeroGradient;
    }
    frontAndBack
    {
        type            empty;
    }
}


// ************************************************************************* //
