/*--------------------------------*- C++ -*----------------------------------*\
  =========                 |
  \\      /  F ield         | OpenFOAM: The Open Source CFD Toolbox
   \\    /   O peration     | Website:  https://openfoam.org
    \\  /    A nd           | Version:  6
     \\/     M anipulation  |
\*---------------------------------------------------------------------------*/
FoamFile
{
    version     2.0;
    format      ascii;
    class       volScalarField;
    location    "0.08";
    object      p;
}
// * * * * * * * * * * * * * * * * * * * * * * * * * * * * * * * * * * * * * //

dimensions      [0 2 -2 0 0 0 0];

internalField   nonuniform List<scalar> 
400
(
1.61677e-05
-0.0347951
-0.0781508
-0.111607
-0.124139
-0.110799
-0.0712153
-0.00831396
0.0727291
0.165278
0.261853
0.354669
0.436148
0.499491
0.539356
0.552718
0.539962
0.506176
0.462597
0.427788
0.0345236
-0.00124487
-0.0352743
-0.0583548
-0.0650413
-0.0518562
-0.0183526
0.0333571
0.099345
0.174446
0.252753
0.328082
0.394443
0.446533
0.480286
0.493501
0.486634
0.46327
0.429045
0.393316
0.0803865
0.0308305
-0.00599903
-0.027302
-0.0327453
-0.0204209
0.00963659
0.0553771
0.113356
0.179146
0.247707
0.313755
0.372158
0.418342
0.448706
0.461094
0.455465
0.433835
0.396753
0.347228
0.122667
0.0540969
0.0082847
-0.0160173
-0.022655
-0.0111095
0.0178653
0.0618424
0.117351
0.180184
0.245643
0.308823
0.364915
0.409522
0.438969
0.450678
0.44386
0.419143
0.372947
0.304319
0.151628
0.0629366
0.00635507
-0.0222341
-0.030253
-0.0184192
0.0117182
0.0571567
0.114146
0.178422
0.245353
0.310127
0.367968
0.414364
0.445281
0.457493
0.449362
0.420271
0.363107
0.274157
0.160296
0.0510383
-0.0167879
-0.0495393
-0.0579109
-0.0438006
-0.0096348
0.0408524
0.103443
0.17362
0.246618
0.317519
0.381371
0.433327
0.468781
0.483662
0.475368
0.442067
0.373397
0.26352
0.142625
0.0121379
-0.0667581
-0.102483
-0.10908
-0.089735
-0.0478997
0.0117964
0.084515
0.165351
0.249286
0.331172
0.405749
0.46768
0.511595
0.532371
0.526245
0.490021
0.409968
0.278291
0.0921363
-0.0606394
-0.149835
-0.186201
-0.187657
-0.158999
-0.104956
-0.0312397
0.0565767
0.153142
0.253157
0.351226
0.441744
0.518799
0.576106
0.607244
0.606975
0.570352
0.479668
0.32488
0.000815494
-0.175703
-0.273659
-0.306896
-0.298293
-0.254858
-0.182971
-0.0896378
0.018766
0.136481
0.258019
0.37785
0.490106
0.588318
0.665175
0.712682
0.723669
0.690747
0.591028
0.411396
-0.141963
-0.343931
-0.447802
-0.472036
-0.446322
-0.380829
-0.284102
-0.164657
-0.0296465
0.114933
0.263662
0.411151
0.551522
0.677909
0.781963
0.853835
0.883813
0.860987
0.755265
0.548824
-0.350884
-0.579892
-0.684421
-0.690441
-0.63746
-0.540196
-0.409974
-0.256963
-0.0889089
0.0883372
0.269896
0.451026
0.626321
0.788902
0.929556
1.03638
1.09641
1.09367
0.987599
0.752597
-0.647135
-0.903688
-0.999049
-0.972203
-0.877218
-0.735217
-0.560888
-0.365968
-0.158309
0.0570722
0.276605
0.496989
0.714084
0.921723
1.11035
1.26608
1.37201
1.40507
1.30921
1.04521
-1.06308
-1.34388
-1.41146
-1.32819
-1.16977
-0.96584
-0.734663
-0.48892
-0.235547
0.0223978
0.28379
0.547916
0.813079
1.07504
1.32499
1.54778
1.7223
1.81612
1.75026
1.46113
-1.65199
-1.94223
-1.94613
-1.76839
-1.51566
-1.22753
-0.924912
-0.619678
-0.315977
-0.0131894
0.291552
0.601622
0.919376
1.24433
1.57051
1.88335
2.15861
2.35291
2.35481
2.05682
-2.50793
-2.76062
-2.63059
-2.29739
-1.90716
-1.5076
-1.1185
-0.747164
-0.391796
-0.0456954
0.299885
0.65414
1.02543
1.41957
1.83677
2.26718
2.68743
3.04509
3.1877
2.93104
-3.80004
-3.88707
-3.48935
-2.90667
-2.32193
-1.78094
-1.29323
-0.85436
-0.451798
-0.0697945
0.308237
0.69895
1.1187
1.58266
2.10224
2.67991
3.30279
3.91969
4.34028
4.25901
-5.83246
-5.43572
-4.53244
-3.56807
-2.7203
-2.00973
-1.41903
-0.920092
-0.483062
-0.0799984
0.315008
0.727066
1.182
1.70749
2.33286
3.08518
3.97937
4.98926
5.92968
6.35123
-9.28488
-7.55097
-5.69686
-4.18852
-3.01863
-2.12956
-1.45169
-0.916894
-0.470844
-0.0715417
0.315978
0.724456
1.18888
1.75124
2.46588
3.40102
4.62562
6.19288
8.10495
9.89567
-15.9314
-10.3233
-6.56605
-4.38392
-2.94828
-1.96849
-1.28693
-0.78524
-0.385457
-0.036487
0.299957
0.65846
1.07735
1.60781
2.32801
3.35756
4.85665
7.11561
10.9622
16.6723
-27.0777
-12.99
-6.27685
-3.58849
-2.19641
-1.36866
-0.848498
-0.48985
-0.212791
0.0269827
0.259097
0.50929
0.807138
1.19676
1.75776
2.63772
4.10083
6.88632
13.7135
27.916
)
;

boundaryField
{
    movingWall
    {
        type            zeroGradient;
    }
    fixedWalls
    {
        type            zeroGradient;
    }
    frontAndBack
    {
        type            empty;
    }
}


// ************************************************************************* //
