/*--------------------------------*- C++ -*----------------------------------*\
  =========                 |
  \\      /  F ield         | OpenFOAM: The Open Source CFD Toolbox
   \\    /   O peration     | Website:  https://openfoam.org
    \\  /    A nd           | Version:  6
     \\/     M anipulation  |
\*---------------------------------------------------------------------------*/
FoamFile
{
    version     2.0;
    format      ascii;
    class       surfaceScalarField;
    location    "0.08";
    object      phi;
}
// * * * * * * * * * * * * * * * * * * * * * * * * * * * * * * * * * * * * * //

dimensions      [0 3 -1 0 0 0 0];

internalField   nonuniform List<scalar> 
760
(
1.47902e-08
-1.48115e-08
-2.07591e-08
3.55492e-08
-1.12658e-07
9.18991e-08
-2.44706e-07
1.32048e-07
-3.96799e-07
1.52093e-07
-5.49568e-07
1.52769e-07
-6.86253e-07
1.36685e-07
-7.93566e-07
1.07313e-07
-8.61961e-07
6.83941e-08
-8.8566e-07
2.36991e-08
-8.62648e-07
-2.30119e-08
-7.94691e-07
-6.79569e-08
-6.87407e-07
-1.07284e-07
-5.50341e-07
-1.37066e-07
-3.96945e-07
-1.53396e-07
-2.44252e-07
-1.52693e-07
-1.11903e-07
-1.32349e-07
-2.01238e-08
-9.17793e-08
1.50386e-08
-3.51625e-08
1.50387e-08
-3.28957e-08
1.80843e-08
-1.77526e-07
1.8018e-07
-4.30941e-07
3.45314e-07
-7.63012e-07
4.64118e-07
-1.13359e-06
5.22674e-07
-1.50139e-06
5.20568e-07
-1.82904e-06
4.64331e-07
-2.0859e-06
3.64179e-07
-2.24949e-06
2.31984e-07
-2.30604e-06
8.02478e-08
-2.25077e-06
-7.82848e-08
-2.088e-06
-2.30727e-07
-1.8312e-06
-3.64078e-07
-1.50287e-06
-4.65398e-07
-1.13392e-06
-5.2235e-07
-7.62202e-07
-5.24407e-07
-4.29514e-07
-4.65037e-07
-1.76246e-07
-3.45048e-07
-3.23218e-08
-1.79087e-07
-1.72832e-08
-9.0396e-08
1.0848e-07
-3.53248e-07
4.43033e-07
-7.60958e-07
7.53024e-07
-1.26742e-06
9.70575e-07
-1.8175e-06
1.07276e-06
-2.35543e-06
1.0585e-06
-2.83061e-06
9.39508e-07
-3.20132e-06
7.34894e-07
-3.43678e-06
4.67436e-07
-3.51806e-06
1.61532e-07
-3.43861e-06
-1.57735e-07
-3.20439e-06
-4.64949e-07
-2.8339e-06
-7.34564e-07
-2.35791e-06
-9.41392e-07
-1.81846e-06
-1.0618e-06
-1.26676e-06
-1.0761e-06
-7.59293e-07
-9.72504e-07
-3.51581e-07
-7.5276e-07
-8.95806e-08
-4.41086e-07
-1.06864e-07
-1.4294e-07
2.5142e-07
-5.21528e-07
8.2162e-07
-1.07906e-06
1.31056e-06
-1.74923e-06
1.64074e-06
-2.46157e-06
1.7851e-06
-3.14813e-06
1.74506e-06
-3.74871e-06
1.54009e-06
-4.2143e-06
1.20048e-06
-4.50895e-06
7.62085e-07
-4.61068e-06
2.63266e-07
-4.51185e-06
-2.5657e-07
-4.21928e-06
-7.57509e-07
-3.75441e-06
-1.19944e-06
-3.15303e-06
-1.54277e-06
-2.46452e-06
-1.75032e-06
-1.74984e-06
-1.79078e-06
-1.07789e-06
-1.64446e-06
-5.19813e-07
-1.31083e-06
-1.41959e-07
-8.1894e-07
-2.48824e-07
-1.91316e-07
4.42737e-07
-6.82472e-07
1.31278e-06
-1.38726e-06
2.01534e-06
-2.21645e-06
2.46993e-06
-3.08286e-06
2.65152e-06
-3.90689e-06
2.56908e-06
-4.62057e-06
2.25377e-06
-5.17e-06
1.74992e-06
-5.51639e-06
1.10847e-06
-5.63623e-06
3.83104e-07
-5.52128e-06
-3.71512e-07
-5.17865e-06
-1.10014e-06
-4.63098e-06
-1.7471e-06
-3.91677e-06
-2.25699e-06
-3.09026e-06
-2.57684e-06
-2.22034e-06
-2.66069e-06
-1.38794e-06
-2.47686e-06
-6.81398e-07
-2.01738e-06
-1.90346e-07
-1.30999e-06
-4.39169e-07
-2.38445e-07
6.81181e-07
-8.42004e-07
1.91633e-06
-1.6943e-06
2.86765e-06
-2.68104e-06
3.45666e-06
-3.69698e-06
3.66746e-06
-4.65102e-06
3.52312e-06
-5.46889e-06
3.07164e-06
-6.09388e-06
2.37491e-06
-6.48635e-06
1.50093e-06
-6.62267e-06
5.19431e-07
-6.49452e-06
-4.99665e-07
-6.10861e-06
-1.48605e-06
-5.48728e-06
-2.36843e-06
-4.66958e-06
-3.07469e-06
-3.71245e-06
-3.53397e-06
-2.6913e-06
-3.68184e-06
-1.69903e-06
-3.46912e-06
-8.42736e-07
-2.87368e-06
-2.37823e-07
-1.9149e-06
-6.76993e-07
-2.87347e-07
9.68529e-07
-1.00705e-06
2.63604e-06
-2.00981e-06
3.8704e-06
-3.15363e-06
4.60049e-06
-4.31416e-06
4.82799e-06
-5.38948e-06
4.59844e-06
-6.30099e-06
3.98315e-06
-6.99174e-06
3.06566e-06
-7.42361e-06
1.93281e-06
-7.57453e-06
6.70351e-07
-7.43658e-06
-6.37618e-07
-7.01544e-06
-1.90719e-06
-6.33133e-06
-3.05254e-06
-5.42132e-06
-3.9847e-06
-4.34239e-06
-4.6129e-06
-3.17441e-06
-4.84982e-06
-2.02165e-06
-4.62188e-06
-1.01131e-06
-3.88401e-06
-2.87612e-07
-2.6386e-06
-9.64604e-07
-3.40864e-07
1.30939e-06
-1.18417e-06
3.47934e-06
-2.34182e-06
5.02806e-06
-3.64055e-06
5.89922e-06
-4.93621e-06
6.12364e-06
-6.11794e-06
5.78018e-06
-7.10618e-06
4.97139e-06
-7.84748e-06
3.80696e-06
-8.30849e-06
2.39382e-06
-8.47084e-06
8.32703e-07
-8.32778e-06
-7.80687e-07
-7.88311e-06
-2.35186e-06
-7.15269e-06
-3.78296e-06
-6.16817e-06
-4.96922e-06
-4.98262e-06
-5.79845e-06
-3.67686e-06
-6.15557e-06
-2.36468e-06
-5.93407e-06
-1.19426e-06
-5.05443e-06
-3.42772e-07
-3.49009e-06
-1.30738e-06
-4.01802e-07
1.7112e-06
-1.3793e-06
4.45683e-06
-2.69577e-06
6.34453e-06
-4.14172e-06
7.34517e-06
-5.55354e-06
7.53546e-06
-6.81533e-06
7.04197e-06
-7.85207e-06
6.00813e-06
-8.61931e-06
4.57421e-06
-9.09302e-06
2.86752e-06
-9.26137e-06
1.00106e-06
-9.11978e-06
-9.22273e-07
-8.66926e-06
-2.80238e-06
-7.91836e-06
-4.53386e-06
-6.88868e-06
-5.9989e-06
-5.62358e-06
-7.06355e-06
-4.199e-06
-7.58015e-06
-2.73414e-06
-7.39893e-06
-1.39804e-06
-6.39053e-06
-4.06344e-07
-4.48179e-06
-1.71372e-06
-4.73503e-07
2.1847e-06
-1.59834e-06
5.58167e-06
-3.07392e-06
7.8201e-06
-4.64855e-06
8.91981e-06
-6.14152e-06
9.02843e-06
-7.43904e-06
8.33948e-06
-8.47918e-06
7.04826e-06
-9.23427e-06
5.32931e-06
-9.69542e-06
3.32867e-06
-9.86102e-06
1.16666e-06
-9.72995e-06
-1.05334e-06
-9.29935e-06
-3.23299e-06
-8.56699e-06
-5.26622e-06
-7.53848e-06
-7.0274e-06
-6.23938e-06
-8.36265e-06
-4.73169e-06
-9.08785e-06
-3.1324e-06
-8.99822e-06
-1.62891e-06
-7.89402e-06
-4.81884e-07
-5.62881e-06
-2.1956e-06
-5.60858e-07
2.74556e-06
-1.84816e-06
6.86898e-06
-3.47465e-06
9.4466e-06
-5.14059e-06
1.05857e-05
-6.65487e-06
1.05427e-05
-7.91801e-06
9.60263e-06
-8.89365e-06
8.0239e-06
-9.58098e-06
6.01664e-06
-9.99323e-06
3.74092e-06
-1.0143e-05
1.31645e-06
-1.00342e-05
-1.16218e-06
-9.65904e-06
-3.60813e-06
-9.00096e-06
-5.9243e-06
-8.04266e-06
-7.9857e-06
-6.7815e-06
-9.62381e-06
-5.25237e-06
-1.0617e-05
-3.55694e-06
-1.06936e-05
-1.89367e-06
-9.5573e-06
-5.7445e-07
-6.94803e-06
-2.77006e-06
-6.72012e-07
3.41757e-06
-2.13764e-06
8.3346e-06
-3.89007e-06
1.1199e-05
-5.57908e-06
1.22748e-05
-7.01841e-06
1.1982e-05
-8.14255e-06
1.07268e-05
-8.95752e-06
8.83887e-06
-9.50114e-06
6.56025e-06
-9.81572e-06
4.0555e-06
-9.93174e-06
1.43248e-06
-9.85936e-06
-1.23457e-06
-9.58555e-06
-3.88193e-06
-9.07634e-06
-6.43351e-06
-8.28498e-06
-8.77707e-06
-7.16875e-06
-1.074e-05
-5.71778e-06
-1.2068e-05
-3.99739e-06
-1.2414e-05
-2.20048e-06
-1.13542e-05
-6.92239e-07
-8.45626e-06
-3.46229e-06
-8.21116e-07
4.23868e-06
-2.47772e-06
9.99121e-06
-4.29904e-06
1.30203e-05
-5.89386e-06
1.38696e-05
-7.11125e-06
1.31994e-05
-7.94914e-06
1.15647e-05
-8.47635e-06
9.36608e-06
-8.78034e-06
6.86424e-06
-8.9373e-06
4.21246e-06
-8.99714e-06
1.49232e-06
-8.97694e-06
-1.25477e-06
-8.85876e-06
-4.00011e-06
-8.59069e-06
-6.70158e-06
-8.09257e-06
-9.27519e-06
-7.27086e-06
-1.15617e-05
-6.04994e-06
-1.32889e-05
-4.42763e-06
-1.40363e-05
-2.5583e-06
-1.32235e-05
-8.49221e-07
-1.01653e-05
-4.31151e-06
-1.03216e-06
5.27084e-06
-2.87691e-06
1.1836e-05
-4.64927e-06
1.47927e-05
-5.95697e-06
1.51773e-05
-6.73972e-06
1.39822e-05
-7.09844e-06
1.19234e-05
-7.18443e-06
9.45206e-06
-7.14027e-06
6.82009e-06
-7.07451e-06
4.1467e-06
-7.05362e-06
1.47143e-06
-7.1006e-06
-1.20779e-06
-7.19456e-06
-3.90615e-06
-7.26961e-06
-6.62653e-06
-7.21491e-06
-9.3299e-06
-6.88173e-06
-1.18949e-05
-6.10929e-06
-1.40613e-05
-4.78686e-06
-1.53588e-05
-2.97155e-06
-1.50388e-05
-1.06872e-06
-1.20682e-05
-5.38024e-06
-1.34097e-06
6.61181e-06
-3.32076e-06
1.38158e-05
-4.81349e-06
1.62854e-05
-5.53129e-06
1.58951e-05
-5.59312e-06
1.4044e-05
-5.24536e-06
1.15756e-05
-4.73e-06
8.9367e-06
-4.23596e-06
6.32605e-06
-3.89103e-06
3.80177e-06
-3.76819e-06
1.34859e-06
-3.89277e-06
-1.08321e-06
-4.24483e-06
-3.55409e-06
-4.75534e-06
-6.11602e-06
-5.2973e-06
-8.78793e-06
-5.67765e-06
-1.15146e-05
-5.64404e-06
-1.40949e-05
-4.93492e-06
-1.60679e-05
-3.41819e-06
-1.65556e-05
-1.38477e-06
-1.41016e-05
-6.76501e-06
-1.77966e-06
8.39147e-06
-3.70221e-06
1.57383e-05
-4.48844e-06
1.70717e-05
-4.17614e-06
1.55828e-05
-3.17749e-06
1.30454e-05
-1.90468e-06
1.03028e-05
-6.67131e-07
7.69915e-06
3.34279e-07
5.32464e-06
9.81953e-07
3.15409e-06
1.21515e-06
1.11539e-06
1.01288e-06
-8.80938e-07
3.88364e-07
-2.92957e-06
-6.0465e-07
-5.12301e-06
-1.85344e-06
-7.53914e-06
-3.15752e-06
-1.02105e-05
-4.20021e-06
-1.30522e-05
-4.55228e-06
-1.57158e-05
-3.77808e-06
-1.73298e-05
-1.82482e-06
-1.60549e-05
-8.58983e-06
-2.29675e-06
1.06882e-05
-3.62678e-06
1.70683e-05
-2.98238e-06
1.64273e-05
-1.09028e-06
1.36907e-05
1.26885e-06
1.06862e-05
3.57417e-06
7.99749e-06
5.53125e-06
5.74207e-06
6.99472e-06
3.86117e-06
7.90163e-06
2.24718e-06
8.22784e-06
7.89182e-07
7.9651e-06
-6.182e-07
7.11395e-06
-2.07841e-06
5.69041e-06
-3.69947e-06
3.7492e-06
-5.59793e-06
1.42906e-06
-7.89035e-06
-9.76296e-07
-1.06469e-05
-2.93476e-06
-1.37574e-05
-3.63873e-06
-1.66258e-05
-2.32672e-06
-1.73669e-05
-1.09165e-05
-2.50251e-06
1.31907e-05
-1.93608e-06
1.65019e-05
1.19332e-06
1.32979e-05
5.11738e-06
9.76662e-06
8.85293e-06
6.95069e-06
1.19939e-05
4.85651e-06
1.44176e-05
3.31837e-06
1.61218e-05
2.15701e-06
1.71403e-05
1.22867e-06
1.75034e-05
4.26026e-07
1.72214e-05
-3.36204e-07
1.62796e-05
-1.13658e-06
1.46418e-05
-2.06164e-06
1.22656e-05
-3.2218e-06
9.14242e-06
-4.76713e-06
5.38392e-06
-6.88838e-06
1.39311e-06
-9.76654e-06
-1.83165e-06
-1.34011e-05
-2.48282e-06
-1.67157e-05
-1.33994e-05
-5.77735e-07
1.37685e-05
4.63786e-06
1.12863e-05
1.10743e-05
6.86146e-06
1.66513e-05
4.1896e-06
2.09803e-05
2.62168e-06
2.41683e-05
1.6685e-06
2.64192e-05
1.06747e-06
2.79121e-05
6.64079e-07
2.87731e-05
3.677e-07
2.90748e-05
1.24296e-07
2.88411e-05
-1.02501e-07
2.80485e-05
-3.43922e-07
2.66232e-05
-6.36338e-07
2.44354e-05
-1.03403e-06
2.12973e-05
-1.62901e-06
1.69898e-05
-2.58086e-06
1.13879e-05
-4.16472e-06
4.87116e-06
-6.88427e-06
-4.6914e-07
-1.13754e-05
-1.38685e-05
1.37685e-05
2.50548e-05
3.19162e-05
3.61058e-05
3.87275e-05
4.0396e-05
4.14635e-05
4.21276e-05
4.24953e-05
4.26196e-05
4.25171e-05
4.21731e-05
4.15368e-05
4.05028e-05
3.88738e-05
3.62929e-05
3.21282e-05
2.52439e-05
1.38685e-05
)
;

boundaryField
{
    movingWall
    {
        type            calculated;
        value           uniform 0;
    }
    fixedWalls
    {
        type            calculated;
        value           uniform 0;
    }
    frontAndBack
    {
        type            empty;
        value           nonuniform 0();
    }
}


// ************************************************************************* //
