/*--------------------------------*- C++ -*----------------------------------*\
  =========                 |
  \\      /  F ield         | OpenFOAM: The Open Source CFD Toolbox
   \\    /   O peration     | Website:  https://openfoam.org
    \\  /    A nd           | Version:  6
     \\/     M anipulation  |
\*---------------------------------------------------------------------------*/
FoamFile
{
    version     2.0;
    format      ascii;
    class       volScalarField;
    location    "0.01";
    object      p;
}
// * * * * * * * * * * * * * * * * * * * * * * * * * * * * * * * * * * * * * //

dimensions      [0 2 -2 0 0 0 0];

internalField   nonuniform List<scalar> 
400
(
1.81037e-08
-0.0002583
0.00048556
0.00231362
0.00511126
0.00877354
0.0131816
0.0181966
0.0236637
0.0294162
0.0352791
0.0410729
0.0466183
0.0517399
0.0562714
0.0600605
0.0629748
0.0648983
0.0657053
0.0654709
0.000234384
-4.547e-05
0.000732346
0.00256617
0.00534069
0.00896707
0.0133332
0.0183028
0.0237228
0.0294275
0.035243
0.0409909
0.0464926
0.0515736
0.0560686
0.0598269
0.0627219
0.0646519
0.0654912
0.0652345
-0.000523654
-0.000881146
-9.0968e-05
0.00179413
0.00463921
0.00835523
0.0128285
0.0179199
0.0234729
0.0293188
0.0352801
0.0411746
0.0468199
0.0520369
0.0566555
0.0605199
0.0634995
0.0654896
0.0663428
0.066005
-0.0023987
-0.00281887
-0.00199542
-8.68424e-07
0.00301033
0.00694097
0.0116696
0.0170486
0.0229137
0.0290881
0.0353866
0.0416189
0.0475938
0.0531227
0.0580246
0.0621323
0.0653035
0.0674211
0.0683157
0.0679134
-0.00540041
-0.00587392
-0.00498329
-0.00281264
0.000462767
0.00473295
0.00986344
0.0156934
0.0220459
0.0287321
0.0355552
0.0423131
0.0488015
0.0548174
0.0601634
0.0646542
0.0681289
0.0704523
0.0714295
0.0709749
-0.00961936
-0.0101518
-0.0091571
-0.00673333
-0.00308323
0.00166463
0.00735685
0.0138139
0.0208414
0.0282349
0.0357827
0.0432672
0.0504677
0.0571621
0.0631307
0.0681627
0.0720703
0.0746916
0.0757973
0.0752869
-0.0151979
-0.0158017
-0.0146602
-0.0118921
-0.0077389
-0.00235603
0.00407671
0.0113548
0.0192618
0.0275741
0.0360627
0.0444927
0.0526239
0.0602109
0.0670058
0.0727637
0.077259
0.0802907
0.0815802
0.0810037
-0.0223287
-0.0230205
-0.0216789
-0.0184544
-0.0136443
-0.0074429
-6.60902e-05
0.00824917
0.0172598
0.0267208
0.0363847
0.045999
0.055303
0.0640253
0.0718833
0.0785881
0.0838622
0.0874474
0.0889922
0.0883359
-0.0312676
-0.0320681
-0.0304555
-0.026631
-0.0209735
-0.0137337
-0.00517698
0.00441892
0.0147801
0.0256393
0.0367322
0.0477911
0.0585367
0.068671
0.077872
0.085795
0.0920916
0.0964199
0.0983187
0.0975664
-0.0423525
-0.0432867
-0.0413026
-0.0366851
-0.0299359
-0.0213883
-0.0113741
-0.000221791
0.0117611
0.024287
0.0370803
0.0498645
0.0623484
0.0742109
0.0850883
0.0945687
0.102208
0.107542
0.10994
0.109074
-0.0560349
-0.0571306
-0.0546226
-0.0489408
-0.0407764
-0.030583
-0.0187813
-0.00575991
0.00813946
0.0226156
0.0373921
0.0521973
0.0667411
0.0806903
0.0936432
0.105112
0.114527
0.121245
0.124366
0.123372
-0.0729347
-0.0742151
-0.0709363
-0.0637921
-0.053771
-0.0415001
-0.0275148
-0.012272
0.00385774
0.0205731
0.0376156
0.0547401
0.0716811
0.088115
0.103618
0.117625
0.129414
0.138081
0.142299
0.141182
-0.0939407
-0.0953977
-0.0909224
-0.0817079
-0.0692127
-0.0543053
-0.0376607
-0.0198049
-0.00112195
0.0181103
0.0376806
0.0574031
0.0770733
0.096416
0.115021
0.132267
0.147265
0.158754
0.164722
0.163563
-0.120417
-0.121919
-0.115468
-0.103226
-0.0873789
-0.0691067
-0.0492359
-0.0283438
-0.00679579
0.0151928
0.0374994
0.0600428
0.0827313
0.105399
0.127719
0.14908
0.168452
0.184143
0.193068
0.192201
-0.154654
-0.155646
-0.145714
-0.128908
-0.108458
-0.0858818
-0.0621266
-0.0377663
-0.0130859
0.0118201
0.0369723
0.0624506
0.0883418
0.114676
0.141324
0.167831
0.193177
0.215271
0.2295
0.230072
-0.200783
-0.199426
-0.183049
-0.159227
-0.132423
-0.104366
-0.0760019
-0.0477797
-0.0197974
0.00805387
0.0360035
0.0643516
0.0934343
0.123581
0.155029
0.187748
0.221114
0.253025
0.277055
0.282508
-0.266898
-0.257548
-0.229074
-0.194435
-0.158849
-0.123882
-0.0901842
-0.0578289
-0.0265505
0.00407484
0.0345534
0.0654541
0.0974154
0.131159
0.16748
0.207165
0.250696
0.297014
0.338904
0.359064
-0.373554
-0.33658
-0.284528
-0.233404
-0.185934
-0.142623
-0.103174
-0.0667881
-0.0325656
0.000356509
0.0328079
0.0656366
0.0997871
0.136408
0.177004
0.223609
0.278744
0.344777
0.420712
0.486431
-0.579826
-0.441581
-0.338878
-0.265943
-0.206074
-0.155241
-0.111341
-0.0722361
-0.0362355
-0.00205425
0.0313922
0.0651463
0.100368
0.138561
0.181967
0.234239
0.301305
0.394504
0.541521
0.746068
-0.952711
-0.544212
-0.35562
-0.269124
-0.2066
-0.1547
-0.110666
-0.0717914
-0.0360825
-0.00219435
0.0309496
0.0643772
0.0992511
0.137152
0.180681
0.234877
0.310544
0.434759
0.690366
1.17953
)
;

boundaryField
{
    movingWall
    {
        type            zeroGradient;
    }
    fixedWalls
    {
        type            zeroGradient;
    }
    frontAndBack
    {
        type            empty;
    }
}


// ************************************************************************* //
