/*--------------------------------*- C++ -*----------------------------------*\
  =========                 |
  \\      /  F ield         | OpenFOAM: The Open Source CFD Toolbox
   \\    /   O peration     | Website:  https://openfoam.org
    \\  /    A nd           | Version:  6
     \\/     M anipulation  |
\*---------------------------------------------------------------------------*/
FoamFile
{
    version     2.0;
    format      ascii;
    class       surfaceScalarField;
    location    "0.085";
    object      phi;
}
// * * * * * * * * * * * * * * * * * * * * * * * * * * * * * * * * * * * * * //

dimensions      [0 3 -1 0 0 0 0];

internalField   nonuniform List<scalar> 
760
(
1.48161e-08
-1.48359e-08
-2.0687e-08
3.55032e-08
-1.1257e-07
9.18831e-08
-2.44655e-07
1.32085e-07
-3.96822e-07
1.52168e-07
-5.49669e-07
1.52847e-07
-6.86401e-07
1.36732e-07
-7.9371e-07
1.07309e-07
-8.6205e-07
6.83395e-08
-8.85663e-07
2.36134e-08
-8.62565e-07
-2.30977e-08
-7.94554e-07
-6.80114e-08
-6.87266e-07
-1.07287e-07
-5.50249e-07
-1.37018e-07
-3.96932e-07
-1.53317e-07
-2.44314e-07
-1.52618e-07
-1.12003e-07
-1.32311e-07
-2.02096e-08
-9.17934e-08
1.50044e-08
-3.52139e-08
1.50044e-08
-3.28252e-08
1.79893e-08
-1.77371e-07
1.80049e-07
-4.30771e-07
3.45283e-07
-7.62919e-07
4.64233e-07
-1.13364e-06
5.22889e-07
-1.50158e-06
5.20787e-07
-1.82931e-06
4.6446e-07
-2.08616e-06
3.64163e-07
-2.24965e-06
2.31824e-07
-2.30604e-06
8.0002e-08
-2.2506e-06
-7.85291e-08
-2.08773e-06
-2.30882e-07
-1.83093e-06
-3.64088e-07
-1.50269e-06
-4.65261e-07
-1.13388e-06
-5.22125e-07
-7.62311e-07
-5.24189e-07
-4.297e-07
-4.64922e-07
-1.76409e-07
-3.45084e-07
-3.23939e-08
-1.79229e-07
-1.73895e-08
-9.02931e-08
1.08282e-07
-3.53044e-07
4.42799e-07
-7.60757e-07
7.52997e-07
-1.26734e-06
9.70818e-07
-1.81763e-06
1.07318e-06
-2.35574e-06
1.0589e-06
-2.83102e-06
9.39736e-07
-3.2017e-06
7.34846e-07
-3.437e-06
4.6712e-07
-3.51805e-06
1.61056e-07
-3.43837e-06
-1.58208e-07
-3.204e-06
-4.65255e-07
-2.83349e-06
-7.34599e-07
-2.3576e-06
-9.4115e-07
-1.81834e-06
-1.06138e-06
-1.26685e-06
-1.07568e-06
-7.59508e-07
-9.72264e-07
-3.51792e-07
-7.528e-07
-8.96814e-08
-4.4134e-07
-1.07071e-07
-1.42818e-07
2.511e-07
-5.21316e-07
8.21297e-07
-1.07892e-06
1.3106e-06
-1.74931e-06
1.64121e-06
-2.46194e-06
1.78581e-06
-3.14874e-06
1.74571e-06
-3.74942e-06
1.54041e-06
-4.21491e-06
1.20034e-06
-4.5093e-06
7.61507e-07
-4.61067e-06
2.62427e-07
-4.51147e-06
-2.57405e-07
-4.21865e-06
-7.58075e-07
-3.75369e-06
-1.19956e-06
-3.15241e-06
-1.54243e-06
-2.46415e-06
-1.74965e-06
-1.74976e-06
-1.79006e-06
-1.07804e-06
-1.64399e-06
-5.2003e-07
-1.31081e-06
-1.42082e-07
-8.19288e-07
-2.49153e-07
-1.91196e-07
4.42296e-07
-6.82338e-07
1.31244e-06
-1.38734e-06
2.0156e-06
-2.21692e-06
2.47079e-06
-3.08377e-06
2.65265e-06
-3.9081e-06
2.57004e-06
-4.62184e-06
2.25415e-06
-5.17106e-06
1.74955e-06
-5.51697e-06
1.10742e-06
-5.6362e-06
3.81652e-07
-5.52065e-06
-3.72959e-07
-5.17755e-06
-1.10118e-06
-4.62966e-06
-1.74744e-06
-3.91552e-06
-2.25657e-06
-3.08932e-06
-2.57585e-06
-2.21985e-06
-2.65953e-06
-1.38786e-06
-2.47598e-06
-6.81533e-07
-2.01713e-06
-1.90468e-07
-1.31035e-06
-4.39621e-07
-2.38368e-07
6.80664e-07
-8.42091e-07
1.91616e-06
-1.69488e-06
2.86839e-06
-2.6823e-06
3.4582e-06
-3.69888e-06
3.66923e-06
-4.6533e-06
3.52446e-06
-5.47114e-06
3.072e-06
-6.09568e-06
2.37409e-06
-6.48732e-06
1.49907e-06
-6.62263e-06
5.16958e-07
-6.49345e-06
-5.02134e-07
-6.10673e-06
-1.4879e-06
-5.48494e-06
-2.36923e-06
-4.66722e-06
-3.07429e-06
-3.71048e-06
-3.53259e-06
-2.68999e-06
-3.68002e-06
-1.69843e-06
-3.46755e-06
-8.4264e-07
-2.87292e-06
-2.37901e-07
-1.91509e-06
-6.77522e-07
-2.8738e-07
9.68043e-07
-1.00757e-06
2.63636e-06
-2.01126e-06
3.87208e-06
-3.15618e-06
4.60313e-06
-4.31763e-06
4.83068e-06
-5.39339e-06
4.60022e-06
-6.30472e-06
3.98332e-06
-6.99464e-06
3.06402e-06
-7.42518e-06
1.9296e-06
-7.57448e-06
6.66259e-07
-7.4349e-06
-6.4171e-07
-7.01241e-06
-1.91039e-06
-6.32747e-06
-3.05417e-06
-5.41727e-06
-3.98449e-06
-4.3388e-06
-4.61106e-06
-3.17176e-06
-4.84705e-06
-2.02014e-06
-4.61917e-06
-1.01077e-06
-3.88229e-06
-2.87577e-07
-2.63828e-06
-9.651e-07
-3.41099e-07
1.30914e-06
-1.18541e-06
3.48066e-06
-2.34463e-06
5.03131e-06
-3.64502e-06
5.90351e-06
-4.94192e-06
6.12758e-06
-6.12413e-06
5.78243e-06
-7.11191e-06
4.97111e-06
-7.85186e-06
3.80397e-06
-8.31085e-06
2.38859e-06
-8.47079e-06
8.26206e-07
-8.32531e-06
-7.87194e-07
-7.87859e-06
-2.35712e-06
-7.14679e-06
-3.78597e-06
-6.1618e-06
-4.96948e-06
-4.97673e-06
-5.79613e-06
-3.67225e-06
-6.15153e-06
-2.36177e-06
-5.92965e-06
-1.19297e-06
-5.05109e-06
-3.4253e-07
-3.48873e-06
-1.30763e-06
-4.02363e-07
1.71151e-06
-1.3816e-06
4.4599e-06
-2.70049e-06
6.35019e-06
-4.14878e-06
7.3518e-06
-5.56218e-06
7.54098e-06
-6.8244e-06
7.04464e-06
-7.86027e-06
6.00699e-06
-8.6255e-06
4.5692e-06
-9.09633e-06
2.85941e-06
-9.26134e-06
9.91222e-07
-9.11641e-06
-9.32133e-07
-8.66297e-06
-2.81056e-06
-7.90999e-06
-4.53894e-06
-6.87941e-06
-6.00007e-06
-5.61471e-06
-7.06083e-06
-4.19174e-06
-7.5745e-06
-2.72927e-06
-7.39212e-06
-1.39566e-06
-6.3847e-06
-4.05769e-07
-4.47862e-06
-1.7134e-06
-4.74539e-07
2.18604e-06
-1.60211e-06
5.58747e-06
-3.08113e-06
7.82921e-06
-4.65882e-06
8.92949e-06
-6.15363e-06
9.0358e-06
-7.45137e-06
8.34239e-06
-8.4901e-06
7.04571e-06
-9.2424e-06
5.3215e-06
-9.69976e-06
3.31678e-06
-9.86106e-06
1.15252e-06
-9.72566e-06
-1.06753e-06
-9.2912e-06
-3.24501e-06
-8.55596e-06
-5.27418e-06
-7.52596e-06
-7.03007e-06
-6.22702e-06
-8.35976e-06
-4.72117e-06
-9.08036e-06
-3.12499e-06
-8.9883e-06
-1.62503e-06
-7.88465e-06
-4.80825e-07
-5.62282e-06
-2.19422e-06
-5.62539e-07
2.74858e-06
-1.85377e-06
6.87871e-06
-3.48482e-06
9.46025e-06
-5.15442e-06
1.05991e-05
-6.67058e-06
1.0552e-05
-7.93354e-06
9.60534e-06
-8.90708e-06
8.01925e-06
-9.59082e-06
6.00524e-06
-9.99847e-06
3.72443e-06
-1.01432e-05
1.2972e-06
-1.00292e-05
-1.1815e-06
-9.64936e-06
-3.62483e-06
-8.98756e-06
-5.93599e-06
-8.02702e-06
-7.99061e-06
-6.76556e-06
-9.62123e-06
-5.23826e-06
-1.06077e-05
-3.54653e-06
-1.068e-05
-1.88791e-06
-9.54328e-06
-5.72734e-07
-6.938e-06
-2.76696e-06
-6.74517e-07
3.4231e-06
-2.1454e-06
8.34959e-06
-3.90334e-06
1.12182e-05
-5.59629e-06
1.2292e-05
-7.03715e-06
1.19928e-05
-8.16039e-06
1.07286e-05
-8.9725e-06
8.83137e-06
-9.51189e-06
6.54463e-06
-9.82142e-06
4.03396e-06
-9.93201e-06
1.40779e-06
-9.85416e-06
-1.25936e-06
-9.57521e-06
-3.90378e-06
-9.06162e-06
-6.44957e-06
-8.26721e-06
-8.78502e-06
-7.14991e-06
-1.07385e-05
-5.70032e-06
-1.20573e-05
-3.98384e-06
-1.23965e-05
-2.19253e-06
-1.13346e-05
-6.89688e-07
-8.44084e-06
-3.45665e-06
-8.24602e-07
4.2477e-06
-2.48769e-06
1.00127e-05
-4.31499e-06
1.30455e-05
-5.91331e-06
1.38904e-05
-7.13125e-06
1.32108e-05
-7.96724e-06
1.15646e-05
-8.49091e-06
9.35504e-06
-8.79049e-06
6.8442e-06
-8.94264e-06
4.18611e-06
-8.99754e-06
1.4627e-06
-8.97237e-06
-1.28453e-06
-8.8493e-06
-4.02685e-06
-8.57668e-06
-6.7222e-06
-8.07481e-06
-9.28688e-06
-7.25096e-06
-1.15624e-05
-6.03038e-06
-1.32778e-05
-4.41143e-06
-1.40154e-05
-2.54812e-06
-1.31979e-05
-8.45682e-07
-1.01433e-05
-4.30233e-06
-1.0367e-06
5.28441e-06
-2.88864e-06
1.18646e-05
-4.6664e-06
1.48233e-05
-5.97607e-06
1.52e-05
-6.75767e-06
1.39924e-05
-7.11333e-06
1.19202e-05
-7.19549e-06
9.4372e-06
-7.14751e-06
6.79622e-06
-7.07823e-06
4.11684e-06
-7.05408e-06
1.43855e-06
-7.0978e-06
-1.24081e-06
-7.18823e-06
-3.93642e-06
-7.25938e-06
-6.65105e-06
-7.20069e-06
-9.34557e-06
-6.86419e-06
-1.18989e-05
-6.09032e-06
-1.40517e-05
-4.7696e-06
-1.53362e-05
-2.95963e-06
-1.50079e-05
-1.06413e-06
-1.20388e-05
-5.36646e-06
-1.34643e-06
6.63084e-06
-3.33289e-06
1.38511e-05
-4.82872e-06
1.63191e-05
-5.5456e-06
1.59169e-05
-5.60406e-06
1.40508e-05
-5.2523e-06
1.15685e-05
-4.73363e-06
8.91853e-06
-4.23751e-06
6.3001e-06
-3.89165e-06
3.77099e-06
-3.76858e-06
1.31548e-06
-3.89296e-06
-1.11643e-06
-4.24417e-06
-3.58522e-06
-4.75264e-06
-6.14257e-06
-5.29127e-06
-8.80694e-06
-5.66747e-06
-1.15227e-05
-5.63018e-06
-1.4089e-05
-4.91981e-06
-1.60465e-05
-3.40597e-06
-1.65217e-05
-1.37929e-06
-1.40655e-05
-6.74575e-06
-1.78533e-06
8.41617e-06
-3.71174e-06
1.57775e-05
-4.49663e-06
1.7104e-05
-4.17953e-06
1.55998e-05
-3.17546e-06
1.30467e-05
-1.89872e-06
1.02917e-05
-6.59679e-07
7.67948e-06
3.40787e-07
5.29963e-06
9.85649e-07
3.12612e-06
1.21501e-06
1.08611e-06
1.00885e-06
-9.10268e-07
3.81356e-07
-2.95772e-06
-6.12815e-07
-5.1484e-06
-1.86029e-06
-7.55947e-06
-3.16049e-06
-1.02225e-05
-4.1976e-06
-1.30519e-05
-4.54453e-06
-1.56996e-05
-3.76866e-06
-1.72976e-05
-1.8192e-06
-1.60149e-05
-8.56494e-06
-2.30055e-06
1.07167e-05
-3.62844e-06
1.71054e-05
-2.97677e-06
1.64523e-05
-1.07646e-06
1.36995e-05
1.2885e-06
1.06818e-05
3.59582e-06
7.98441e-06
5.5511e-06
5.72421e-06
7.00974e-06
3.841e-06
7.90979e-06
2.22607e-06
8.2281e-06
7.678e-07
7.9574e-06
-6.39562e-07
7.09916e-06
-2.09949e-06
5.67048e-06
-3.71972e-06
3.7271e-06
-5.61609e-06
1.40866e-06
-7.90405e-06
-9.90972e-07
-1.06523e-05
-2.94107e-06
-1.37495e-05
-3.63742e-06
-1.66012e-05
-2.32304e-06
-1.73293e-05
-1.0888e-05
-2.50005e-06
1.32168e-05
-1.92315e-06
1.65285e-05
1.21806e-06
1.33111e-05
5.15052e-06
9.76704e-06
8.88911e-06
6.9432e-06
1.20281e-05
4.84545e-06
1.4446e-05
3.30628e-06
1.6142e-05
2.14501e-06
1.7151e-05
1.21708e-06
1.7504e-05
4.14766e-07
1.72119e-05
-3.47402e-07
1.62604e-05
-1.14801e-06
1.46141e-05
-2.07348e-06
1.22319e-05
-3.23384e-06
9.10624e-06
-4.7784e-06
5.35044e-06
-6.89645e-06
1.36791e-06
-9.76698e-06
-1.84483e-06
-1.33885e-05
-2.48528e-06
-1.66888e-05
-1.33733e-05
-5.63817e-07
1.37806e-05
4.66721e-06
1.12975e-05
1.11136e-05
6.86468e-06
1.66939e-05
4.18676e-06
2.10204e-05
2.6167e-06
2.42023e-05
1.66357e-06
2.64453e-05
1.06322e-06
2.79298e-05
6.60534e-07
2.87822e-05
3.64668e-07
2.90754e-05
1.2155e-07
2.88332e-05
-1.05206e-07
2.80321e-05
-3.46837e-07
2.65983e-05
-6.39727e-07
2.44026e-05
-1.03814e-06
2.12582e-05
-1.63394e-06
1.69478e-05
-2.58607e-06
1.13489e-05
-4.16809e-06
4.8422e-06
-6.88179e-06
-4.82362e-07
-1.13643e-05
-1.38556e-05
1.37806e-05
2.5078e-05
3.19427e-05
3.61295e-05
3.87462e-05
4.04097e-05
4.1473e-05
4.21335e-05
4.24982e-05
4.26197e-05
4.25145e-05
4.21677e-05
4.1528e-05
4.04898e-05
3.88559e-05
3.62698e-05
3.21017e-05
2.52199e-05
1.38556e-05
)
;

boundaryField
{
    movingWall
    {
        type            calculated;
        value           uniform 0;
    }
    fixedWalls
    {
        type            calculated;
        value           uniform 0;
    }
    frontAndBack
    {
        type            empty;
        value           nonuniform 0();
    }
}


// ************************************************************************* //
