/*--------------------------------*- C++ -*----------------------------------*\
  =========                 |
  \\      /  F ield         | OpenFOAM: The Open Source CFD Toolbox
   \\    /   O peration     | Website:  https://openfoam.org
    \\  /    A nd           | Version:  6
     \\/     M anipulation  |
\*---------------------------------------------------------------------------*/
FoamFile
{
    version     2.0;
    format      ascii;
    class       volScalarField;
    location    "0.105";
    object      p;
}
// * * * * * * * * * * * * * * * * * * * * * * * * * * * * * * * * * * * * * //

dimensions      [0 2 -2 0 0 0 0];

internalField   nonuniform List<scalar> 
400
(
1.25616e-05
-0.0231763
-0.0520551
-0.0743101
-0.0826309
-0.0737443
-0.0474053
-0.00554762
0.0484055
0.110057
0.174438
0.236357
0.290746
0.333045
0.359665
0.368573
0.36003
0.337445
0.308342
0.285159
0.0229996
-0.000830213
-0.0234926
-0.0388363
-0.0432662
-0.0344836
-0.0121909
0.0222183
0.0661486
0.116179
0.168384
0.218643
0.262946
0.297735
0.320277
0.32909
0.324479
0.308852
0.285995
0.262205
0.0535473
0.0205262
-0.0039951
-0.0181465
-0.0217467
-0.0135437
0.00644134
0.0368592
0.0754394
0.119256
0.164962
0.209035
0.24804
0.278902
0.299193
0.307459
0.303674
0.289195
0.264422
0.231432
0.0816332
0.0359526
0.0054621
-0.0106748
-0.0150721
-0.00740501
0.0118304
0.0410412
0.077948
0.119777
0.163414
0.20559
0.24308
0.272922
0.292629
0.300459
0.295881
0.279329
0.248455
0.202717
0.100742
0.0416843
0.00404417
-0.0149373
-0.0202671
-0.0124434
0.00751587
0.0376466
0.0754954
0.118261
0.162879
0.206142
0.244843
0.27593
0.29667
0.304871
0.299429
0.279946
0.241723
0.182407
0.106196
0.0334912
-0.0116053
-0.0333548
-0.0389513
-0.0296751
-0.00711451
0.0262966
0.0678104
0.11447
0.163131
0.210515
0.25329
0.288171
0.31202
0.322066
0.316548
0.294248
0.248308
0.174984
0.0939379
0.007178
-0.0452498
-0.0689908
-0.0734693
-0.0608121
-0.0332698
0.00615274
0.0543172
0.108026
0.163975
0.218734
0.268757
0.310414
0.340036
0.354124
0.350117
0.325877
0.272291
0.184343
0.0596379
-0.0418429
-0.101085
-0.125294
-0.126461
-0.107769
-0.072284
-0.0236996
0.0343862
0.0985002
0.165162
0.230779
0.291566
0.34349
0.382239
0.403412
0.403431
0.378966
0.318235
0.214743
-0.00203082
-0.119158
-0.184196
-0.206411
-0.201068
-0.172784
-0.125686
-0.0642826
0.00732966
0.0854312
0.166431
0.246649
0.322113
0.388395
0.440463
0.47282
0.480548
0.458648
0.391846
0.271607
-0.0980919
-0.231963
-0.300928
-0.317316
-0.300869
-0.258257
-0.194989
-0.116526
-0.0274389
0.0684241
0.167533
0.266305
0.360753
0.446157
0.516752
0.565744
0.586455
0.571476
0.500659
0.362316
-0.238209
-0.389861
-0.459309
-0.463852
-0.429675
-0.366401
-0.281318
-0.180924
-0.0701396
0.0473134
0.168282
0.289618
0.407643
0.517606
0.613121
0.68596
0.727185
0.725918
0.65493
0.497285
-0.436292
-0.606078
-0.669568
-0.652665
-0.591113
-0.498693
-0.384847
-0.257053
-0.120257
0.0223971
0.168642
0.316299
0.462528
0.603041
0.731182
0.837333
0.909834
0.932952
0.868958
0.691732
-0.713573
-0.899391
-0.944692
-0.890858
-0.787845
-0.654976
-0.50398
-0.342906
-0.176063
-0.00527491
0.168827
0.345795
0.524426
0.701711
0.871485
1.02321
1.14233
1.20671
1.16313
0.968981
-1.10503
-1.29728
-1.30073
-1.18487
-1.02002
-0.831978
-0.634154
-0.434032
-0.234057
-0.0336075
0.16934
0.377069
0.591093
0.810932
1.03231
1.24506
1.43244
1.56487
1.56721
1.36721
-1.6726
-1.8405
-1.7557
-1.53745
-1.28214
-1.02082
-0.766121
-0.522477
-0.28841
-0.0592794
0.170845
0.408127
0.658109
0.924551
1.20735
1.49951
1.78483
2.02755
2.12494
1.95307
-2.52803
-2.58722
-2.32552
-1.94251
-1.55886
-1.20423
-0.884436
-0.59618
-0.330893
-0.0779516
0.173775
0.435423
0.71789
1.03123
1.38289
1.77418
2.19597
2.6132
2.89778
2.84435
-3.87299
-3.61304
-3.01649
-2.38085
-1.82323
-1.3564
-0.968433
-0.640388
-0.352252
-0.0853237
0.177715
0.453636
0.759668
1.11426
1.53689
2.04546
2.64949
3.33064
3.96436
4.24909
-6.1594
-5.01372
-3.78643
-2.79026
-2.01927
-1.43416
-0.988409
-0.636618
-0.342532
-0.0781243
0.179943
0.453525
0.765979
1.14534
1.62784
2.25901
3.08471
4.13979
5.42508
6.62752
-10.5695
-6.84898
-4.35763
-2.91496
-1.9681
-1.32304
-0.875097
-0.545539
-0.282398
-0.051587
0.172444
0.412787
0.695033
1.05335
1.53994
2.23475
3.24506
4.76456
7.34527
11.1677
-17.9825
-8.61119
-4.1544
-2.37804
-1.46162
-0.91835
-0.57835
-0.344488
-0.163412
-0.00552289
0.148976
0.317281
0.51914
0.783964
1.1648
1.76027
2.74771
4.62119
9.19197
18.678
)
;

boundaryField
{
    movingWall
    {
        type            zeroGradient;
    }
    fixedWalls
    {
        type            zeroGradient;
    }
    frontAndBack
    {
        type            empty;
    }
}


// ************************************************************************* //
