/*--------------------------------*- C++ -*----------------------------------*\
  =========                 |
  \\      /  F ield         | OpenFOAM: The Open Source CFD Toolbox
   \\    /   O peration     | Website:  https://openfoam.org
    \\  /    A nd           | Version:  6
     \\/     M anipulation  |
\*---------------------------------------------------------------------------*/
FoamFile
{
    version     2.0;
    format      ascii;
    class       volScalarField;
    location    "0.065";
    object      p;
}
// * * * * * * * * * * * * * * * * * * * * * * * * * * * * * * * * * * * * * //

dimensions      [0 2 -2 0 0 0 0];

internalField   nonuniform List<scalar> 
400
(
2.07393e-05
-0.0464145
-0.104246
-0.148904
-0.165649
-0.147856
-0.0950277
-0.0110829
0.0970502
0.220496
0.349266
0.472979
0.581547
0.665932
0.719042
0.736857
0.71989
0.674902
0.616846
0.570409
0.0460514
-0.00165794
-0.0470536
-0.077871
-0.0868149
-0.0692284
-0.024515
0.0444942
0.132539
0.232711
0.337118
0.437518
0.525935
0.595325
0.640287
0.657905
0.64878
0.617679
0.572088
0.524417
0.107229
0.0411355
-0.00800135
-0.0364561
-0.043743
-0.0272981
0.0128309
0.0738928
0.151269
0.239034
0.330449
0.418471
0.496273
0.557779
0.598213
0.614721
0.607249
0.578467
0.529078
0.463016
0.163706
0.0722422
0.011109
-0.0213585
-0.030237
-0.0148136
0.0238999
0.0826421
0.156752
0.240588
0.327868
0.412052
0.486746
0.546119
0.585304
0.60089
0.59183
0.558948
0.497432
0.405911
0.20252
0.0841908
0.00866852
-0.0295292
-0.0402382
-0.0243944
0.0159209
0.0766664
0.152795
0.238581
0.327823
0.414108
0.491089
0.552792
0.593887
0.610108
0.599286
0.560587
0.484483
0.365895
0.214404
0.068589
-0.0219664
-0.0657212
-0.0768693
-0.0579253
-0.0121541
0.0554091
0.139075
0.232767
0.3301
0.424517
0.509444
0.578477
0.625536
0.645251
0.63418
0.589876
0.498476
0.352041
0.191323
0.0171033
-0.0882603
-0.135971
-0.144688
-0.118656
-0.0625274
0.0174423
0.114714
0.222676
0.334593
0.443604
0.542733
0.624937
0.683146
0.710609
0.702363
0.654154
0.547633
0.372223
0.124649
-0.0794281
-0.198577
-0.247101
-0.248846
-0.210224
-0.137623
-0.0387749
0.0787705
0.207784
0.341146
0.471663
0.591909
0.694095
0.76996
0.811063
0.810506
0.761725
0.641088
0.434997
0.00368123
-0.232238
-0.36311
-0.407369
-0.395506
-0.336919
-0.240243
-0.114982
0.0302091
0.187531
0.3496
0.509038
0.658081
0.78822
0.889866
0.952526
0.966773
0.922829
0.790193
0.55116
-0.185809
-0.455885
-0.594661
-0.626739
-0.591754
-0.503377
-0.37319
-0.212766
-0.0318405
0.161445
0.359781
0.555976
0.742263
0.909629
1.04714
1.1419
1.18115
1.15048
1.00985
0.7353
-0.463526
-0.769903
-0.909512
-0.917004
-0.845208
-0.713947
-0.538584
-0.332962
-0.107653
0.129367
0.371496
0.612401
0.844953
1.06015
1.24594
1.38677
1.46561
1.46139
1.32024
1.00787
-0.857939
-1.20127
-1.3285
-1.2917
-1.16327
-0.97167
-0.736854
-0.47482
-0.196318
0.0917598
0.384547
0.677629
0.965568
1.24032
1.48943
1.69476
1.83414
1.87716
1.74942
1.39865
-1.41255
-1.78833
-1.87818
-1.76545
-1.5516
-1.2766
-0.965234
-0.634837
-0.294966
0.050092
0.398725
0.749965
1.10163
1.44824
1.77838
2.07225
2.3022
2.42548
2.33734
1.95323
-2.19891
-2.58715
-2.59146
-2.35181
-2.01117
-1.62294
-1.21551
-0.80519
-0.397808
0.00726055
0.413731
0.826082
1.24752
1.67757
2.10855
2.5215
2.88467
3.14088
3.14235
2.74637
-3.34324
-3.6807
-3.5054
-3.05721
-2.532
-1.99417
-1.47068
-0.971683
-0.495068
-0.0320703
0.428887
0.90004
1.39258
1.91438
2.46598
3.03466
3.58988
4.06254
4.25041
3.90899
-5.07208
-5.18688
-4.6531
-3.87068
-3.08478
-2.3574
-1.70179
-1.11235
-0.572574
-0.0615903
0.442658
0.962353
1.51931
2.13385
2.82134
3.5854
4.40944
5.22607
5.78272
5.67369
-7.79205
-7.25837
-6.04832
-4.75514
-3.61714
-2.6628
-1.86938
-1.1996
-0.61374
-0.0746252
0.452258
1.00037
1.60413
2.30047
3.12856
4.12466
5.30908
6.64778
7.89497
8.45347
-12.4106
-10.0882
-7.60725
-5.58663
-4.01778
-2.82472
-1.91474
-1.19698
-0.599031
-0.0649146
0.451974
0.995268
1.61159
2.35692
3.30367
4.5428
6.16637
8.24591
10.7848
13.164
-21.2938
-13.7977
-8.77447
-5.85279
-3.92829
-2.61373
-1.69856
-1.02477
-0.488404
-0.0213453
0.427435
0.904027
1.4595
2.16206
3.11588
4.48019
6.46815
9.46665
14.5792
22.1773
-36.1737
-17.3692
-8.3995
-4.79896
-2.9311
-1.81879
-1.11846
-0.635046
-0.262057
0.0595288
0.36918
0.701186
1.09497
1.60935
2.35054
3.51505
5.45395
9.15162
18.2353
37.1547
)
;

boundaryField
{
    movingWall
    {
        type            zeroGradient;
    }
    fixedWalls
    {
        type            zeroGradient;
    }
    frontAndBack
    {
        type            empty;
    }
}


// ************************************************************************* //
