/*--------------------------------*- C++ -*----------------------------------*\
  =========                 |
  \\      /  F ield         | OpenFOAM: The Open Source CFD Toolbox
   \\    /   O peration     | Website:  https://openfoam.org
    \\  /    A nd           | Version:  6
     \\/     M anipulation  |
\*---------------------------------------------------------------------------*/
FoamFile
{
    version     2.0;
    format      ascii;
    class       surfaceScalarField;
    location    "0.065";
    object      phi;
}
// * * * * * * * * * * * * * * * * * * * * * * * * * * * * * * * * * * * * * //

dimensions      [0 3 -1 0 0 0 0];

internalField   nonuniform List<scalar> 
760
(
1.48152e-08
-1.48365e-08
-2.06873e-08
3.55026e-08
-1.1257e-07
9.18824e-08
-2.44653e-07
1.32084e-07
-3.9682e-07
1.52167e-07
-5.49666e-07
1.52846e-07
-6.86397e-07
1.36731e-07
-7.93706e-07
1.07309e-07
-8.62044e-07
6.83391e-08
-8.85657e-07
2.36133e-08
-8.6256e-07
-2.30975e-08
-7.94549e-07
-6.80111e-08
-6.87262e-07
-1.07287e-07
-5.50246e-07
-1.37017e-07
-3.9693e-07
-1.53316e-07
-2.44313e-07
-1.52617e-07
-1.12003e-07
-1.3231e-07
-2.02094e-08
-9.1793e-08
1.50044e-08
-3.52139e-08
1.50042e-08
-3.28254e-08
1.79889e-08
-1.7737e-07
1.80047e-07
-4.30769e-07
3.45281e-07
-7.62915e-07
4.6423e-07
-1.13363e-06
5.22886e-07
-1.50157e-06
5.20784e-07
-1.8293e-06
4.64457e-07
-2.08615e-06
3.64161e-07
-2.24963e-06
2.31823e-07
-2.30602e-06
8.00017e-08
-2.25059e-06
-7.85285e-08
-2.08772e-06
-2.30881e-07
-1.83092e-06
-3.64086e-07
-1.50268e-06
-4.65258e-07
-1.13388e-06
-5.22122e-07
-7.62307e-07
-5.24186e-07
-4.29698e-07
-4.64919e-07
-1.76408e-07
-3.45082e-07
-3.23936e-08
-1.79228e-07
-1.73895e-08
-9.02928e-08
1.08282e-07
-3.53042e-07
4.42796e-07
-7.60753e-07
7.52992e-07
-1.26733e-06
9.70812e-07
-1.81762e-06
1.07317e-06
-2.35573e-06
1.0589e-06
-2.831e-06
9.3973e-07
-3.20168e-06
7.34842e-07
-3.43698e-06
4.67117e-07
-3.51803e-06
1.61055e-07
-3.43835e-06
-1.58206e-07
-3.20398e-06
-4.65252e-07
-2.83347e-06
-7.34594e-07
-2.35759e-06
-9.41144e-07
-1.81833e-06
-1.06138e-06
-1.26684e-06
-1.07567e-06
-7.59504e-07
-9.72259e-07
-3.5179e-07
-7.52795e-07
-8.96809e-08
-4.41338e-07
-1.0707e-07
-1.42817e-07
2.51099e-07
-5.21314e-07
8.21293e-07
-1.07891e-06
1.31059e-06
-1.7493e-06
1.6412e-06
-2.46193e-06
1.7858e-06
-3.14872e-06
1.7457e-06
-3.7494e-06
1.5404e-06
-4.21489e-06
1.20033e-06
-4.50927e-06
7.61502e-07
-4.61064e-06
2.62425e-07
-4.51144e-06
-2.57403e-07
-4.21863e-06
-7.5807e-07
-3.75367e-06
-1.19955e-06
-3.1524e-06
-1.54242e-06
-2.46413e-06
-1.74964e-06
-1.74976e-06
-1.79005e-06
-1.07803e-06
-1.64398e-06
-5.20028e-07
-1.3108e-06
-1.42082e-07
-8.19283e-07
-2.49152e-07
-1.91195e-07
4.42294e-07
-6.82335e-07
1.31243e-06
-1.38734e-06
2.01559e-06
-2.21691e-06
2.47078e-06
-3.08376e-06
2.65264e-06
-3.90808e-06
2.57002e-06
-4.62182e-06
2.25414e-06
-5.17103e-06
1.74954e-06
-5.51695e-06
1.10742e-06
-5.63617e-06
3.8165e-07
-5.52062e-06
-3.72957e-07
-5.17752e-06
-1.10117e-06
-4.62964e-06
-1.74743e-06
-3.9155e-06
-2.25655e-06
-3.0893e-06
-2.57584e-06
-2.21984e-06
-2.65952e-06
-1.38785e-06
-2.47597e-06
-6.8153e-07
-2.01712e-06
-1.90467e-07
-1.31035e-06
-4.39618e-07
-2.38367e-07
6.80661e-07
-8.42088e-07
1.91615e-06
-1.69488e-06
2.86838e-06
-2.68229e-06
3.45819e-06
-3.69886e-06
3.66922e-06
-4.65328e-06
3.52444e-06
-5.47112e-06
3.07198e-06
-6.09566e-06
2.37408e-06
-6.4873e-06
1.49906e-06
-6.6226e-06
5.16955e-07
-6.49343e-06
-5.02132e-07
-6.1067e-06
-1.4879e-06
-5.48492e-06
-2.36922e-06
-4.6672e-06
-3.07427e-06
-3.71047e-06
-3.53257e-06
-2.68998e-06
-3.68e-06
-1.69842e-06
-3.46753e-06
-8.42637e-07
-2.87291e-06
-2.37901e-07
-1.91508e-06
-6.77519e-07
-2.87379e-07
9.68039e-07
-1.00757e-06
2.63635e-06
-2.01125e-06
3.87207e-06
-3.15617e-06
4.60311e-06
-4.31762e-06
4.83066e-06
-5.39338e-06
4.6002e-06
-6.3047e-06
3.9833e-06
-6.99462e-06
3.064e-06
-7.42516e-06
1.92959e-06
-7.57446e-06
6.66256e-07
-7.43488e-06
-6.41707e-07
-7.01239e-06
-1.91038e-06
-6.32745e-06
-3.05416e-06
-5.41726e-06
-3.98447e-06
-4.33879e-06
-4.61104e-06
-3.17175e-06
-4.84703e-06
-2.02013e-06
-4.61915e-06
-1.01076e-06
-3.88227e-06
-2.87577e-07
-2.63827e-06
-9.65096e-07
-3.41098e-07
1.30914e-06
-1.1854e-06
3.48065e-06
-2.34463e-06
5.03129e-06
-3.64501e-06
5.90349e-06
-4.94191e-06
6.12756e-06
-6.12412e-06
5.7824e-06
-7.1119e-06
4.97109e-06
-7.85185e-06
3.80395e-06
-8.31083e-06
2.38858e-06
-8.47077e-06
8.26203e-07
-8.32529e-06
-7.8719e-07
-7.87857e-06
-2.35711e-06
-7.14678e-06
-3.78595e-06
-6.16179e-06
-4.96946e-06
-4.97672e-06
-5.79611e-06
-3.67224e-06
-6.15151e-06
-2.36177e-06
-5.92963e-06
-1.19297e-06
-5.05107e-06
-3.42529e-07
-3.48871e-06
-1.30763e-06
-4.02363e-07
1.7115e-06
-1.3816e-06
4.45989e-06
-2.70049e-06
6.35017e-06
-4.14878e-06
7.35178e-06
-5.56218e-06
7.54096e-06
-6.82439e-06
7.04462e-06
-7.86026e-06
6.00696e-06
-8.62549e-06
4.56918e-06
-9.09632e-06
2.8594e-06
-9.26133e-06
9.91219e-07
-9.11639e-06
-9.32128e-07
-8.66296e-06
-2.81054e-06
-7.90999e-06
-4.53892e-06
-6.8794e-06
-6.00004e-06
-5.61471e-06
-7.06081e-06
-4.19173e-06
-7.57448e-06
-2.72927e-06
-7.39209e-06
-1.39566e-06
-6.38468e-06
-4.05769e-07
-4.4786e-06
-1.71339e-06
-4.74539e-07
2.18604e-06
-1.60211e-06
5.58746e-06
-3.08113e-06
7.82919e-06
-4.65881e-06
8.92947e-06
-6.15362e-06
9.03577e-06
-7.45137e-06
8.34236e-06
-8.49009e-06
7.04569e-06
-9.24239e-06
5.32148e-06
-9.69976e-06
3.31676e-06
-9.86106e-06
1.15251e-06
-9.72566e-06
-1.06753e-06
-9.2912e-06
-3.245e-06
-8.55596e-06
-5.27416e-06
-7.52595e-06
-7.03005e-06
-6.22702e-06
-8.35974e-06
-4.72117e-06
-9.08033e-06
-3.12498e-06
-8.98828e-06
-1.62503e-06
-7.88463e-06
-4.80825e-07
-5.62281e-06
-2.19422e-06
-5.62539e-07
2.74858e-06
-1.85378e-06
6.8787e-06
-3.48482e-06
9.46023e-06
-5.15442e-06
1.05991e-05
-6.67058e-06
1.05519e-05
-7.93354e-06
9.60532e-06
-8.90708e-06
8.01923e-06
-9.59082e-06
6.00522e-06
-9.99847e-06
3.72442e-06
-1.01432e-05
1.2972e-06
-1.00292e-05
-1.1815e-06
-9.64937e-06
-3.62482e-06
-8.98756e-06
-5.93597e-06
-8.02703e-06
-7.99058e-06
-6.76556e-06
-9.6212e-06
-5.23826e-06
-1.06076e-05
-3.54653e-06
-1.068e-05
-1.88791e-06
-9.54326e-06
-5.72735e-07
-6.93798e-06
-2.76695e-06
-6.74518e-07
3.4231e-06
-2.1454e-06
8.34958e-06
-3.90335e-06
1.12182e-05
-5.5963e-06
1.2292e-05
-7.03715e-06
1.19928e-05
-8.1604e-06
1.07286e-05
-8.97251e-06
8.83135e-06
-9.5119e-06
6.54461e-06
-9.82143e-06
4.03395e-06
-9.93202e-06
1.40779e-06
-9.85417e-06
-1.25935e-06
-9.57522e-06
-3.90377e-06
-9.06163e-06
-6.44955e-06
-8.26722e-06
-8.785e-06
-7.14991e-06
-1.07385e-05
-5.70032e-06
-1.20572e-05
-3.98384e-06
-1.23965e-05
-2.19253e-06
-1.13346e-05
-6.89689e-07
-8.44082e-06
-3.45664e-06
-8.24603e-07
4.2477e-06
-2.48769e-06
1.00127e-05
-4.31499e-06
1.30455e-05
-5.91331e-06
1.38903e-05
-7.13126e-06
1.32107e-05
-7.96725e-06
1.15646e-05
-8.49093e-06
9.35502e-06
-8.7905e-06
6.84419e-06
-8.94266e-06
4.18611e-06
-8.99756e-06
1.46269e-06
-8.97239e-06
-1.28453e-06
-8.84932e-06
-4.02684e-06
-8.57669e-06
-6.72218e-06
-8.07483e-06
-9.28686e-06
-7.25097e-06
-1.15624e-05
-6.03038e-06
-1.32778e-05
-4.41144e-06
-1.40154e-05
-2.54813e-06
-1.31979e-05
-8.45683e-07
-1.01433e-05
-4.30232e-06
-1.0367e-06
5.2844e-06
-2.88864e-06
1.18646e-05
-4.66641e-06
1.48232e-05
-5.97608e-06
1.52e-05
-6.75768e-06
1.39923e-05
-7.11335e-06
1.19202e-05
-7.19551e-06
9.43718e-06
-7.14753e-06
6.79621e-06
-7.07826e-06
4.11683e-06
-7.05411e-06
1.43854e-06
-7.09783e-06
-1.24081e-06
-7.18825e-06
-3.93642e-06
-7.2594e-06
-6.65103e-06
-7.2007e-06
-9.34556e-06
-6.86421e-06
-1.18989e-05
-6.09033e-06
-1.40517e-05
-4.76961e-06
-1.53361e-05
-2.95963e-06
-1.50079e-05
-1.06413e-06
-1.20388e-05
-5.36645e-06
-1.34644e-06
6.63084e-06
-3.3329e-06
1.38511e-05
-4.82873e-06
1.63191e-05
-5.54561e-06
1.59169e-05
-5.60407e-06
1.40508e-05
-5.25232e-06
1.15685e-05
-4.73365e-06
8.91852e-06
-4.23753e-06
6.30009e-06
-3.89168e-06
3.77098e-06
-3.76861e-06
1.31547e-06
-3.89299e-06
-1.11643e-06
-4.24419e-06
-3.58521e-06
-4.75266e-06
-6.14256e-06
-5.29128e-06
-8.80693e-06
-5.66748e-06
-1.15227e-05
-5.63019e-06
-1.4089e-05
-4.91981e-06
-1.60465e-05
-3.40598e-06
-1.65217e-05
-1.37929e-06
-1.40655e-05
-6.74574e-06
-1.78533e-06
8.41617e-06
-3.71175e-06
1.57775e-05
-4.49664e-06
1.7104e-05
-4.17954e-06
1.55998e-05
-3.17547e-06
1.30467e-05
-1.89874e-06
1.02917e-05
-6.59701e-07
7.67947e-06
3.40763e-07
5.29963e-06
9.85623e-07
3.12612e-06
1.21498e-06
1.08611e-06
1.00882e-06
-9.10267e-07
3.81331e-07
-2.95772e-06
-6.12837e-07
-5.1484e-06
-1.86031e-06
-7.55946e-06
-3.1605e-06
-1.02225e-05
-4.19761e-06
-1.30519e-05
-4.54454e-06
-1.56996e-05
-3.76866e-06
-1.72976e-05
-1.8192e-06
-1.60149e-05
-8.56494e-06
-2.30055e-06
1.07167e-05
-3.62845e-06
1.71054e-05
-2.97677e-06
1.64523e-05
-1.07647e-06
1.36995e-05
1.28849e-06
1.06818e-05
3.59581e-06
7.98441e-06
5.55108e-06
5.7242e-06
7.00971e-06
3.84099e-06
7.90976e-06
2.22607e-06
8.22808e-06
7.67799e-07
7.95737e-06
-6.39561e-07
7.09914e-06
-2.09949e-06
5.67046e-06
-3.71971e-06
3.72708e-06
-5.61609e-06
1.40865e-06
-7.90404e-06
-9.90981e-07
-1.06522e-05
-2.94107e-06
-1.37495e-05
-3.63742e-06
-1.66012e-05
-2.32304e-06
-1.73293e-05
-1.0888e-05
-2.50005e-06
1.32168e-05
-1.92315e-06
1.65285e-05
1.21805e-06
1.33111e-05
5.15052e-06
9.76704e-06
8.8891e-06
6.94319e-06
1.20281e-05
4.84544e-06
1.4446e-05
3.30627e-06
1.6142e-05
2.145e-06
1.7151e-05
1.21707e-06
1.7504e-05
4.14766e-07
1.72118e-05
-3.47401e-07
1.62604e-05
-1.14801e-06
1.46141e-05
-2.07347e-06
1.22319e-05
-3.23383e-06
9.10623e-06
-4.7784e-06
5.35043e-06
-6.89645e-06
1.3679e-06
-9.76698e-06
-1.84483e-06
-1.33885e-05
-2.48528e-06
-1.66888e-05
-1.33733e-05
-5.63817e-07
1.37806e-05
4.66721e-06
1.12975e-05
1.11136e-05
6.86468e-06
1.66939e-05
4.18676e-06
2.10204e-05
2.61669e-06
2.42023e-05
1.66357e-06
2.64453e-05
1.06322e-06
2.79298e-05
6.60533e-07
2.87822e-05
3.64668e-07
2.90754e-05
1.21549e-07
2.88332e-05
-1.05206e-07
2.8032e-05
-3.46836e-07
2.65983e-05
-6.39727e-07
2.44026e-05
-1.03814e-06
2.12581e-05
-1.63394e-06
1.69478e-05
-2.58607e-06
1.13489e-05
-4.16809e-06
4.8422e-06
-6.88179e-06
-4.82362e-07
-1.13643e-05
-1.38556e-05
1.37806e-05
2.5078e-05
3.19427e-05
3.61295e-05
3.87462e-05
4.04097e-05
4.1473e-05
4.21335e-05
4.24982e-05
4.26197e-05
4.25145e-05
4.21677e-05
4.1528e-05
4.04898e-05
3.88559e-05
3.62698e-05
3.21017e-05
2.52199e-05
1.38556e-05
)
;

boundaryField
{
    movingWall
    {
        type            calculated;
        value           uniform 0;
    }
    fixedWalls
    {
        type            calculated;
        value           uniform 0;
    }
    frontAndBack
    {
        type            empty;
        value           nonuniform 0();
    }
}


// ************************************************************************* //
