/*--------------------------------*- C++ -*----------------------------------*\
  =========                 |
  \\      /  F ield         | OpenFOAM: The Open Source CFD Toolbox
   \\    /   O peration     | Website:  https://openfoam.org
    \\  /    A nd           | Version:  6
     \\/     M anipulation  |
\*---------------------------------------------------------------------------*/
FoamFile
{
    version     2.0;
    format      ascii;
    class       volScalarField;
    location    "0.285";
    object      p;
}
// * * * * * * * * * * * * * * * * * * * * * * * * * * * * * * * * * * * * * //

dimensions      [0 2 -2 0 0 0 0];

internalField   nonuniform List<scalar> 
400
(
6.18621e-06
-0.0231866
-0.0520663
-0.0743215
-0.0826427
-0.0737562
-0.0474173
-0.00555945
0.048394
0.110046
0.174427
0.236346
0.290735
0.333033
0.359654
0.368562
0.360019
0.337434
0.308331
0.285148
0.0229894
-0.000841168
-0.0235038
-0.0388476
-0.0432776
-0.0344951
-0.0122026
0.0222065
0.0661369
0.116167
0.168373
0.218632
0.262934
0.297724
0.320266
0.329079
0.324468
0.308841
0.285983
0.262194
0.0535364
0.020515
-0.0040064
-0.0181578
-0.021758
-0.0135549
0.00642998
0.0368477
0.0754277
0.119244
0.16495
0.209024
0.248029
0.278891
0.299181
0.307448
0.303662
0.289183
0.26441
0.23142
0.0816223
0.0359415
0.00545077
-0.0106862
-0.0150835
-0.00741626
0.0118192
0.0410299
0.0779365
0.119765
0.163402
0.205579
0.243069
0.272911
0.292618
0.300448
0.295869
0.279318
0.248443
0.202706
0.100731
0.0416733
0.00403292
-0.0149488
-0.0202786
-0.0124548
0.00750465
0.0376355
0.0754841
0.118249
0.162867
0.20613
0.244831
0.275919
0.296659
0.30486
0.299418
0.279934
0.241711
0.182395
0.106185
0.0334803
-0.0116164
-0.0333662
-0.0389629
-0.0296867
-0.00712597
0.0262854
0.0677993
0.114459
0.16312
0.210504
0.253279
0.288159
0.312009
0.322055
0.316536
0.294237
0.248296
0.174972
0.0939267
0.00716695
-0.0452608
-0.0690019
-0.0734807
-0.0608238
-0.0332815
0.00614125
0.054306
0.108015
0.163964
0.218722
0.268745
0.310402
0.340024
0.354112
0.350106
0.325865
0.272279
0.184331
0.0596266
-0.0418542
-0.101097
-0.125305
-0.126473
-0.10778
-0.0722957
-0.0237113
0.0343747
0.098489
0.165151
0.230768
0.291555
0.343478
0.382227
0.4034
0.40342
0.378955
0.318223
0.214731
-0.00204225
-0.119169
-0.184208
-0.206422
-0.201079
-0.172795
-0.125697
-0.0642944
0.00731786
0.0854197
0.16642
0.246637
0.322102
0.388383
0.440451
0.472808
0.480536
0.458636
0.391834
0.271595
-0.0981033
-0.231974
-0.30094
-0.317328
-0.300881
-0.258268
-0.195
-0.116537
-0.0274508
0.0684122
0.167522
0.266294
0.360742
0.446146
0.51674
0.565732
0.586444
0.571464
0.500647
0.362305
-0.238221
-0.389873
-0.459321
-0.463863
-0.429686
-0.366412
-0.281329
-0.180935
-0.0701511
0.0473016
0.16827
0.289606
0.407631
0.517594
0.613109
0.685948
0.727174
0.725907
0.654919
0.497274
-0.436303
-0.60609
-0.669579
-0.652677
-0.591124
-0.498705
-0.384858
-0.257064
-0.120268
0.0223855
0.168631
0.316287
0.462517
0.603029
0.73117
0.837322
0.909822
0.932941
0.868947
0.691721
-0.713585
-0.899403
-0.944704
-0.890869
-0.787857
-0.654988
-0.503992
-0.342918
-0.176074
-0.00528617
0.168816
0.345783
0.524414
0.701699
0.871474
1.0232
1.14232
1.2067
1.16312
0.96897
-1.10504
-1.29729
-1.30074
-1.18488
-1.02003
-0.83199
-0.634166
-0.434043
-0.234068
-0.0336187
0.169329
0.377057
0.591081
0.810921
1.03229
1.24505
1.43243
1.56485
1.5672
1.3672
-1.67262
-1.84051
-1.75571
-1.53746
-1.28215
-1.02083
-0.766132
-0.522488
-0.288421
-0.0592907
0.170834
0.408116
0.658098
0.924539
1.20733
1.4995
1.78482
2.02754
2.12493
1.95306
-2.52804
-2.58723
-2.32554
-1.94252
-1.55887
-1.20424
-0.884448
-0.596191
-0.330905
-0.0779631
0.173764
0.435412
0.717878
1.03122
1.38287
1.77417
2.19596
2.61319
2.89777
2.84434
-3.873
-3.61305
-3.0165
-2.38086
-1.82324
-1.35642
-0.968444
-0.6404
-0.352264
-0.0853354
0.177704
0.453624
0.759656
1.11425
1.53688
2.04545
2.64948
3.33063
3.96435
4.24908
-6.15941
-5.01374
-3.78644
-2.79028
-2.01928
-1.43417
-0.98842
-0.636629
-0.342544
-0.0781359
0.179931
0.453514
0.765967
1.14532
1.62783
2.259
3.0847
4.13978
5.42507
6.62751
-10.5695
-6.84899
-4.35764
-2.91497
-1.96811
-1.32305
-0.875108
-0.54555
-0.282409
-0.0515984
0.172433
0.412775
0.695022
1.05334
1.53993
2.23474
3.24505
4.76455
7.34525
11.1677
-17.9825
-8.6112
-4.15441
-2.37805
-1.46163
-0.918362
-0.578361
-0.344499
-0.163424
-0.00553409
0.148965
0.31727
0.519128
0.783952
1.16479
1.76025
2.74769
4.62118
9.19196
18.678
)
;

boundaryField
{
    movingWall
    {
        type            zeroGradient;
    }
    fixedWalls
    {
        type            zeroGradient;
    }
    frontAndBack
    {
        type            empty;
    }
}


// ************************************************************************* //
