/*--------------------------------*- C++ -*----------------------------------*\
  =========                 |
  \\      /  F ield         | OpenFOAM: The Open Source CFD Toolbox
   \\    /   O peration     | Website:  https://openfoam.org
    \\  /    A nd           | Version:  6
     \\/     M anipulation  |
\*---------------------------------------------------------------------------*/
FoamFile
{
    version     2.0;
    format      ascii;
    class       surfaceScalarField;
    location    "0.03";
    object      phi;
}
// * * * * * * * * * * * * * * * * * * * * * * * * * * * * * * * * * * * * * //

dimensions      [0 3 -1 0 0 0 0];

internalField   nonuniform List<scalar> 
760
(
1.48272e-08
-1.48495e-08
-2.06432e-08
3.547e-08
-1.12503e-07
9.18592e-08
-2.44589e-07
1.32086e-07
-3.96777e-07
1.52188e-07
-5.49646e-07
1.52868e-07
-6.86383e-07
1.36738e-07
-7.93672e-07
1.07289e-07
-8.61967e-07
6.8295e-08
-8.85525e-07
2.3558e-08
-8.62379e-07
-2.31449e-08
-7.94347e-07
-6.80322e-08
-6.87076e-07
-1.07271e-07
-5.5011e-07
-1.36966e-07
-3.96865e-07
-1.53245e-07
-2.44316e-07
-1.52548e-07
-1.12048e-07
-1.32268e-07
-2.02596e-08
-9.17889e-08
1.49809e-08
-3.52409e-08
1.49807e-08
-3.2779e-08
1.79301e-08
-1.77252e-07
1.79943e-07
-4.30605e-07
3.45212e-07
-7.62748e-07
4.6423e-07
-1.13349e-06
5.22935e-07
-1.50146e-06
5.20835e-07
-1.82918e-06
4.64462e-07
-2.08599e-06
3.64094e-07
-2.24938e-06
2.3169e-07
-2.30567e-06
7.98409e-08
-2.25015e-06
-7.86627e-08
-2.08724e-06
-2.30937e-07
-1.83048e-06
-3.64033e-07
-1.50235e-06
-4.65103e-07
-1.13369e-06
-5.21905e-07
-7.62262e-07
-5.23975e-07
-4.29748e-07
-4.64782e-07
-1.76482e-07
-3.45054e-07
-3.24325e-08
-1.7929e-07
-1.7452e-08
-9.02176e-08
1.08148e-07
-3.52869e-07
4.42593e-07
-7.60523e-07
7.52867e-07
-1.26711e-06
9.70813e-07
-1.81743e-06
1.07326e-06
-2.35557e-06
1.05898e-06
-2.83083e-06
9.39722e-07
-3.20144e-06
7.34698e-07
-3.4366e-06
4.66855e-07
-3.5175e-06
1.60744e-07
-3.4377e-06
-1.58465e-07
-3.20328e-06
-4.65362e-07
-2.83281e-06
-7.345e-07
-2.35706e-06
-9.40853e-07
-1.818e-06
-1.06097e-06
-1.26671e-06
-1.07526e-06
-7.59524e-07
-9.71972e-07
-3.51867e-07
-7.52711e-07
-8.97279e-08
-4.41428e-07
-1.0718e-07
-1.42723e-07
2.50872e-07
-5.21116e-07
8.20985e-07
-1.07868e-06
1.31043e-06
-1.74911e-06
1.64124e-06
-2.46181e-06
1.78596e-06
-3.14866e-06
1.74583e-06
-3.7493e-06
1.54037e-06
-4.21467e-06
1.20007e-06
-4.50885e-06
7.61039e-07
-4.60999e-06
2.61882e-07
-4.51059e-06
-2.57864e-07
-4.21766e-06
-7.58293e-07
-3.75272e-06
-1.19944e-06
-3.1516e-06
-1.54198e-06
-2.46358e-06
-1.74898e-06
-1.74948e-06
-1.78936e-06
-1.07798e-06
-1.64347e-06
-5.20088e-07
-1.3106e-06
-1.42135e-07
-8.1938e-07
-2.49315e-07
-1.91098e-07
4.4197e-07
-6.82173e-07
1.31206e-06
-1.38722e-06
2.01548e-06
-2.21694e-06
2.47096e-06
-3.08393e-06
2.65295e-06
-3.90834e-06
2.57023e-06
-4.62203e-06
2.25405e-06
-5.17103e-06
1.74907e-06
-5.51662e-06
1.10663e-06
-5.63546e-06
3.80725e-07
-5.51956e-06
-3.73768e-07
-5.17623e-06
-1.10163e-06
-4.62828e-06
-1.74738e-06
-3.91428e-06
-2.25598e-06
-3.08837e-06
-2.57489e-06
-2.21928e-06
-2.65846e-06
-1.38763e-06
-2.47512e-06
-6.81529e-07
-2.0167e-06
-1.90516e-07
-1.31039e-06
-4.39831e-07
-2.38295e-07
6.80265e-07
-8.42056e-07
1.91582e-06
-1.69506e-06
2.86848e-06
-2.68278e-06
3.45868e-06
-3.69964e-06
3.66981e-06
-4.65418e-06
3.52478e-06
-5.47192e-06
3.07179e-06
-6.09611e-06
2.37326e-06
-6.48722e-06
1.49774e-06
-6.6219e-06
5.15403e-07
-6.49213e-06
-5.03541e-07
-6.10495e-06
-1.4888e-06
-5.48296e-06
-2.36937e-06
-4.66532e-06
-3.07363e-06
-3.70892e-06
-3.53129e-06
-2.68894e-06
-3.67844e-06
-1.6979e-06
-3.46616e-06
-8.42496e-07
-2.8721e-06
-2.37922e-07
-1.91497e-06
-6.77753e-07
-2.87374e-07
9.6764e-07
-1.0078e-06
2.63625e-06
-2.01197e-06
3.87265e-06
-3.15747e-06
4.60417e-06
-4.31937e-06
4.83171e-06
-5.39531e-06
4.60072e-06
-6.30644e-06
3.98292e-06
-6.99581e-06
3.06263e-06
-7.4255e-06
1.92743e-06
-7.57382e-06
6.63719e-07
-7.43328e-06
-6.44076e-07
-7.01003e-06
-1.91206e-06
-6.32465e-06
-3.05475e-06
-5.41442e-06
-3.98386e-06
-4.33631e-06
-4.60939e-06
-3.16993e-06
-4.84482e-06
-2.01908e-06
-4.61701e-06
-1.01036e-06
-3.88082e-06
-2.87533e-07
-2.63779e-06
-9.65287e-07
-3.41221e-07
1.30886e-06
-1.18609e-06
3.48111e-06
-2.34619e-06
5.03275e-06
-3.6475e-06
5.90548e-06
-4.94508e-06
6.12929e-06
-6.1275e-06
5.78314e-06
-7.11495e-06
4.97037e-06
-7.85404e-06
3.80172e-06
-8.31177e-06
2.38516e-06
-8.47027e-06
8.22212e-07
-8.32334e-06
-7.90997e-07
-7.87542e-06
-2.35998e-06
-7.14286e-06
-3.78732e-06
-6.15764e-06
-4.96907e-06
-4.97293e-06
-5.7941e-06
-3.66929e-06
-6.14845e-06
-2.35991e-06
-5.9264e-06
-1.19214e-06
-5.04859e-06
-3.42366e-07
-3.48757e-06
-1.30765e-06
-4.02688e-07
1.71155e-06
-1.38295e-06
4.46138e-06
-2.70325e-06
6.35305e-06
-4.1529e-06
7.35513e-06
-5.5672e-06
7.5436e-06
-6.82962e-06
7.04556e-06
-7.86494e-06
6.00569e-06
-8.62893e-06
4.56571e-06
-9.098e-06
2.85424e-06
-9.26101e-06
9.85217e-07
-9.11407e-06
-9.3794e-07
-8.6589e-06
-2.81515e-06
-7.90472e-06
-4.5415e-06
-6.87364e-06
-6.00015e-06
-5.60923e-06
-7.05851e-06
-4.18727e-06
-7.57042e-06
-2.72627e-06
-7.38739e-06
-1.3942e-06
-6.38066e-06
-4.05413e-07
-4.47635e-06
-1.71307e-06
-4.75159e-07
2.18671e-06
-1.60436e-06
5.59058e-06
-3.08544e-06
7.83413e-06
-4.66494e-06
8.93464e-06
-6.16084e-06
9.0395e-06
-7.4587e-06
8.34342e-06
-8.49657e-06
7.04355e-06
-9.24717e-06
5.31631e-06
-9.70225e-06
3.30932e-06
-9.86096e-06
1.14393e-06
-9.72297e-06
-1.07593e-06
-9.28622e-06
-3.2519e-06
-8.54926e-06
-5.27846e-06
-7.51837e-06
-7.03104e-06
-6.21956e-06
-8.35732e-06
-4.71482e-06
-9.07515e-06
-3.12052e-06
-8.98169e-06
-1.6227e-06
-7.87849e-06
-4.80187e-07
-5.61886e-06
-2.19325e-06
-5.63556e-07
2.75026e-06
-1.85717e-06
6.88419e-06
-3.49096e-06
9.46792e-06
-5.16278e-06
1.06065e-05
-6.68009e-06
1.05568e-05
-7.94293e-06
9.60627e-06
-8.91522e-06
8.01584e-06
-9.59681e-06
5.9979e-06
-1.00017e-05
3.71421e-06
-1.01433e-05
1.28555e-06
-1.00263e-05
-1.19298e-06
-9.64364e-06
-3.63453e-06
-8.97961e-06
-5.9425e-06
-8.01772e-06
-7.99292e-06
-6.75607e-06
-9.61898e-06
-5.22985e-06
-1.06014e-05
-3.54033e-06
-1.06712e-05
-1.88447e-06
-9.53434e-06
-5.71711e-07
-6.93162e-06
-2.76496e-06
-6.76038e-07
3.4263e-06
-2.15011e-06
8.35826e-06
-3.91141e-06
1.12292e-05
-5.60677e-06
1.23018e-05
-7.04857e-06
1.19986e-05
-8.17131e-06
1.0729e-05
-8.98174e-06
8.82627e-06
-9.51861e-06
6.53478e-06
-9.82512e-06
4.02073e-06
-9.93245e-06
1.39288e-06
-9.85131e-06
-1.27413e-06
-9.56926e-06
-3.91658e-06
-9.05303e-06
-6.45873e-06
-8.25677e-06
-8.78918e-06
-7.13878e-06
-1.0737e-05
-5.68998e-06
-1.20502e-05
-3.9758e-06
-1.23854e-05
-2.18781e-06
-1.13223e-05
-6.88173e-07
-8.43126e-06
-3.45314e-06
-8.2672e-07
4.25302e-06
-2.49375e-06
1.00253e-05
-4.3247e-06
1.30602e-05
-5.92519e-06
1.39023e-05
-7.14352e-06
1.32169e-05
-7.97842e-06
1.15639e-05
-8.50003e-06
9.34787e-06
-8.79699e-06
6.83174e-06
-8.94628e-06
4.17003e-06
-8.99823e-06
1.44483e-06
-8.97007e-06
-1.30229e-06
-8.84404e-06
-4.04261e-06
-8.56863e-06
-6.73413e-06
-8.06448e-06
-9.29334e-06
-7.23929e-06
-1.15622e-05
-6.01884e-06
-1.32706e-05
-4.40186e-06
-1.40024e-05
-2.5421e-06
-1.31821e-05
-8.43583e-07
-1.01298e-05
-4.29672e-06
-1.03946e-06
5.29248e-06
-2.89578e-06
1.18816e-05
-4.67685e-06
1.48412e-05
-5.98777e-06
1.52132e-05
-6.76877e-06
1.39979e-05
-7.12266e-06
1.19178e-05
-7.20259e-06
9.4278e-06
-7.15237e-06
6.78152e-06
-7.08103e-06
4.09868e-06
-7.05493e-06
1.41873e-06
-7.09668e-06
-1.26054e-06
-7.18495e-06
-3.95435e-06
-7.2537e-06
-6.66538e-06
-7.19254e-06
-9.35449e-06
-6.85398e-06
-1.19007e-05
-6.07917e-06
-1.40454e-05
-4.75941e-06
-1.53221e-05
-2.95257e-06
-1.49889e-05
-1.0614e-06
-1.20209e-05
-5.35812e-06
-1.34975e-06
6.64223e-06
-3.34027e-06
1.38721e-05
-4.83803e-06
1.6339e-05
-5.55445e-06
1.59296e-05
-5.61096e-06
1.40544e-05
-5.2569e-06
1.15637e-05
-4.73633e-06
8.90723e-06
-4.23903e-06
6.28422e-06
-3.89267e-06
3.75232e-06
-3.76948e-06
1.29554e-06
-3.89372e-06
-1.1363e-06
-4.24436e-06
-3.6037e-06
-4.75154e-06
-6.1582e-06
-5.28807e-06
-8.81796e-06
-5.66169e-06
-1.15271e-05
-5.62211e-06
-1.4085e-05
-4.9109e-06
-1.60333e-05
-3.39874e-06
-1.65011e-05
-1.37604e-06
-1.40436e-05
-6.73416e-06
-1.78876e-06
8.431e-06
-3.71755e-06
1.58009e-05
-4.5017e-06
1.71232e-05
-4.1818e-06
1.56097e-05
-3.17457e-06
1.30472e-05
-1.89558e-06
1.02848e-05
-6.55749e-07
7.66739e-06
3.44064e-07
5.28441e-06
9.87181e-07
3.1092e-06
1.21422e-06
1.0685e-06
1.00574e-06
-9.27822e-07
3.7652e-07
-2.97448e-06
-6.18256e-07
-5.16342e-06
-1.86484e-06
-7.57138e-06
-3.16259e-06
-1.02294e-05
-4.19625e-06
-1.30513e-05
-4.54002e-06
-1.56896e-05
-3.76309e-06
-1.7278e-05
-1.81586e-06
-1.59909e-05
-8.55002e-06
-2.30286e-06
1.07339e-05
-3.6295e-06
1.71276e-05
-2.97351e-06
1.64672e-05
-1.06836e-06
1.37046e-05
1.29999e-06
1.06789e-05
3.60839e-06
7.97635e-06
5.56247e-06
5.71331e-06
7.01812e-06
3.82876e-06
7.914e-06
2.21333e-06
8.22755e-06
7.54945e-07
7.95208e-06
-6.52354e-07
7.08967e-06
-2.11207e-06
5.65798e-06
-3.73174e-06
3.71342e-06
-5.62682e-06
1.39612e-06
-7.91206e-06
-9.9997e-07
-1.06553e-05
-2.94495e-06
-1.37446e-05
-3.63668e-06
-1.65863e-05
-2.32085e-06
-1.73067e-05
-1.08709e-05
-2.49858e-06
1.32324e-05
-1.91541e-06
1.65444e-05
1.23283e-06
1.33189e-05
5.17025e-06
9.76717e-06
8.91055e-06
6.93858e-06
1.20482e-05
4.83871e-06
1.44626e-05
3.29894e-06
1.61536e-05
2.13775e-06
1.71568e-05
1.21009e-06
1.75038e-05
4.08001e-07
1.72055e-05
-3.54111e-07
1.62483e-05
-1.15484e-06
1.45971e-05
-2.08053e-06
1.22112e-05
-3.24099e-06
9.08426e-06
-4.78507e-06
5.33019e-06
-6.90118e-06
1.35271e-06
-9.76712e-06
-1.85275e-06
-1.33808e-05
-2.48677e-06
-1.66727e-05
-1.33576e-05
-5.55436e-07
1.37879e-05
4.68483e-06
1.13041e-05
1.11372e-05
6.86658e-06
1.67193e-05
4.18501e-06
2.10442e-05
2.61368e-06
2.42224e-05
1.66059e-06
2.64606e-05
1.06067e-06
2.794e-05
6.584e-07
2.87872e-05
3.62847e-07
2.90753e-05
1.19901e-07
2.8828e-05
-1.06827e-07
2.80218e-05
-3.48582e-07
2.6583e-05
-6.41755e-07
2.43826e-05
-1.0406e-06
2.12344e-05
-1.63689e-06
1.69224e-05
-2.58918e-06
1.13254e-05
-4.17008e-06
4.82483e-06
-6.88027e-06
-4.90268e-07
-1.13576e-05
-1.38479e-05
1.37879e-05
2.5092e-05
3.19586e-05
3.61436e-05
3.87573e-05
4.04179e-05
4.14785e-05
4.21369e-05
4.24998e-05
4.26197e-05
4.25128e-05
4.21643e-05
4.15225e-05
4.04819e-05
3.8845e-05
3.62558e-05
3.20858e-05
2.52055e-05
1.38479e-05
)
;

boundaryField
{
    movingWall
    {
        type            calculated;
        value           uniform 0;
    }
    fixedWalls
    {
        type            calculated;
        value           uniform 0;
    }
    frontAndBack
    {
        type            empty;
        value           nonuniform 0();
    }
}


// ************************************************************************* //
