/*--------------------------------*- C++ -*----------------------------------*\
  =========                 |
  \\      /  F ield         | OpenFOAM: The Open Source CFD Toolbox
   \\    /   O peration     | Website:  https://openfoam.org
    \\  /    A nd           | Version:  6
     \\/     M anipulation  |
\*---------------------------------------------------------------------------*/
FoamFile
{
    version     2.0;
    format      ascii;
    class       volVectorField;
    location    "0.095";
    object      U;
}
// * * * * * * * * * * * * * * * * * * * * * * * * * * * * * * * * * * * * * //

dimensions      [0 1 -1 0 0 0 0];

internalField   nonuniform List<vector> 
400
(
(0.000103438 -0.000103077 0)
(-0.000172081 0.000204374 0)
(-0.00130837 0.000497046 0)
(-0.00302228 0.000663991 0)
(-0.00499716 0.000721115 0)
(-0.00699157 0.00069742 0)
(-0.00882566 0.000616509 0)
(-0.0103668 0.000494522 0)
(-0.0115159 0.000341187 0)
(-0.0121961 0.000162729 0)
(-0.012349 -3.48264e-05 0)
(-0.0119381 -0.000242682 0)
(-0.0109584 -0.000446927 0)
(-0.00945057 -0.000627086 0)
(-0.00751716 -0.000756083 0)
(-0.00533487 -0.000802413 0)
(-0.00315643 -0.000735213 0)
(-0.00129859 -0.000531695 0)
(-0.000117986 -0.000197787 0)
(0.000128427 0.000123213 0)
(-0.000193798 0.000157785 0)
(-0.00157869 0.00157489 0)
(-0.00468301 0.00281388 0)
(-0.00888942 0.00354453 0)
(-0.0135897 0.00379313 0)
(-0.0182962 0.00365402 0)
(-0.022611 0.00322037 0)
(-0.0262231 0.00256578 0)
(-0.0288948 0.00174279 0)
(-0.0304467 0.000791521 0)
(-0.0307503 -0.000248045 0)
(-0.0297354 -0.00132399 0)
(-0.0274086 -0.0023628 0)
(-0.0238797 -0.00326412 0)
(-0.01939 -0.00390287 0)
(-0.0143309 -0.00414194 0)
(-0.00923494 -0.00385863 0)
(-0.00473132 -0.00298367 0)
(-0.00151014 -0.00157654 0)
(-0.000154981 -9.14744e-05 0)
(-0.000506642 0.00129431 0)
(-0.00297386 0.00471422 0)
(-0.0078312 0.00746379 0)
(-0.0140755 0.0090797 0)
(-0.0208798 0.0095994 0)
(-0.0276134 0.0092018 0)
(-0.0337491 0.00808379 0)
(-0.0388655 0.00641379 0)
(-0.0426381 0.00432248 0)
(-0.0448208 0.0019169 0)
(-0.0452396 -0.000695063 0)
(-0.0438009 -0.00337897 0)
(-0.0405151 -0.00595281 0)
(-0.0355309 -0.00817659 0)
(-0.0291719 -0.00975939 0)
(-0.0219605 -0.0103918 0)
(-0.0146018 -0.0098092 0)
(-0.00792417 -0.00788298 0)
(-0.00288215 -0.00475722 0)
(-0.000450039 -0.00116344 0)
(-0.000749428 0.0031496 0)
(-0.00414772 0.00931457 0)
(-0.0105714 0.0139332 0)
(-0.0186082 0.0165685 0)
(-0.0272114 0.017334 0)
(-0.0356367 0.0165277 0)
(-0.0432708 0.014475 0)
(-0.0496244 0.0114589 0)
(-0.054319 0.0077051 0)
(-0.0570644 0.0034027 0)
(-0.0576491 -0.00125727 0)
(-0.0559494 -0.00603937 0)
(-0.0519587 -0.0106284 0)
(-0.0458299 -0.0146113 0)
(-0.0379254 -0.017489 0)
(-0.0288544 -0.0187321 0)
(-0.0194628 -0.0178869 0)
(-0.0107732 -0.0147254 0)
(-0.00403832 -0.00943439 0)
(-0.000668302 -0.00292504 0)
(-0.000946802 0.00557684 0)
(-0.00517559 0.0151673 0)
(-0.0130576 0.0219771 0)
(-0.022777 0.0257215 0)
(-0.0330591 0.0266775 0)
(-0.0430515 0.0253156 0)
(-0.0520741 0.0221199 0)
(-0.0595932 0.0175047 0)
(-0.0651964 0.0117976 0)
(-0.0685599 0.00527167 0)
(-0.0694326 -0.00179861 0)
(-0.0676452 -0.00907413 0)
(-0.0631444 -0.016096 0)
(-0.0560491 -0.0222544 0)
(-0.0467216 -0.0268008 0)
(-0.0358321 -0.0289268 0)
(-0.0243692 -0.0279188 0)
(-0.0135907 -0.0233766 0)
(-0.00511816 -0.0154658 0)
(-0.000846305 -0.00523893 0)
(-0.00113166 0.00851906 0)
(-0.00617485 0.0222168 0)
(-0.0155191 0.0315655 0)
(-0.0269391 0.0365214 0)
(-0.0389198 0.0376164 0)
(-0.0504998 0.0355593 0)
(-0.0609434 0.0310329 0)
(-0.0696885 0.0246004 0)
(-0.076303 0.016694 0)
(-0.0804353 0.00766244 0)
(-0.0817882 -0.00214912 0)
(-0.0801249 -0.0123086 0)
(-0.0753081 -0.0222135 0)
(-0.0673751 -0.0310361 0)
(-0.0566409 -0.0377273 0)
(-0.0438073 -0.0411135 0)
(-0.0300154 -0.0401106 0)
(-0.0168214 -0.0340345 0)
(-0.00632948 -0.0229561 0)
(-0.00103382 -0.00809755 0)
(-0.00133256 0.0119895 0)
(-0.00725936 0.0305146 0)
(-0.0181868 0.0427777 0)
(-0.0314403 0.0490571 0)
(-0.0452433 0.0502397 0)
(-0.0585251 0.0473516 0)
(-0.0705069 0.041322 0)
(-0.0806161 0.0328831 0)
(-0.0884171 0.0225692 0)
(-0.0935387 0.0107866 0)
(-0.0956323 -0.00207622 0)
(-0.0943699 -0.0155217 0)
(-0.0894861 -0.0288187 0)
(-0.0808736 -0.0409078 0)
(-0.0687305 -0.0503789 0)
(-0.0537366 -0.055576 0)
(-0.037179 -0.0548783 0)
(-0.0209838 -0.0471437 0)
(-0.00791053 -0.0322398 0)
(-0.001283 -0.0116176 0)
(-0.00157464 0.0160619 0)
(-0.00853311 0.0402152 0)
(-0.0212705 0.0557948 0)
(-0.0365804 0.0635019 0)
(-0.052391 0.0647025 0)
(-0.0675269 0.0608367 0)
(-0.0811865 0.0531386 0)
(-0.0928141 0.0425318 0)
(-0.101996 0.0296454 0)
(-0.10836 0.0149138 0)
(-0.11151 -0.0012757 0)
(-0.111006 -0.0184095 0)
(-0.106409 -0.0356671 0)
(-0.097387 -0.0517627 0)
(-0.0839187 -0.0648654 0)
(-0.0665607 -0.0726878 0)
(-0.046693 -0.072833 0)
(-0.0266689 -0.0634221 0)
(-0.010141 -0.0439191 0)
(-0.00165484 -0.016052 0)
(-0.00188242 0.0208653 0)
(-0.0100941 0.0515698 0)
(-0.0249561 0.0708846 0)
(-0.0425972 0.0800848 0)
(-0.0606053 0.0811826 0)
(-0.0777134 0.076157 0)
(-0.093133 0.0666196 0)
(-0.106367 0.0537104 0)
(-0.117067 0.0381423 0)
(-0.124894 0.0203372 0)
(-0.129424 0.00061768 0)
(-0.130107 -0.0205647 0)
(-0.126287 -0.0423758 0)
(-0.11732 -0.0633462 0)
(-0.102825 -0.0811882 0)
(-0.0830678 -0.0928151 0)
(-0.0593797 -0.0947262 0)
(-0.0345336 -0.0838647 0)
(-0.0133612 -0.0589071 0)
(-0.00222951 -0.0218176 0)
(-0.00228522 0.0265839 0)
(-0.0120462 0.0649146 0)
(-0.0294118 0.0883688 0)
(-0.0496555 0.0990337 0)
(-0.069972 0.0998045 0)
(-0.0890351 0.0933646 0)
(-0.106126 0.0817912 0)
(-0.120872 0.0664713 0)
(-0.133049 0.0481867 0)
(-0.142413 0.0272972 0)
(-0.148563 0.00397959 0)
(-0.150863 -0.0214865 0)
(-0.148433 -0.048378 0)
(-0.140242 -0.0751474 0)
(-0.125388 -0.0990751 0)
(-0.103596 -0.116128 0)
(-0.075871 -0.121295 0)
(-0.0452449 -0.109677 0)
(-0.0179868 -0.0784518 0)
(-0.00312017 -0.0295389 0)
(-0.00282626 0.0334685 0)
(-0.0145182 0.0806628 0)
(-0.0347981 0.108576 0)
(-0.0578259 0.12049 0)
(-0.0803569 0.120528 0)
(-0.101073 0.112292 0)
(-0.119418 0.0984313 0)
(-0.135227 0.0806115 0)
(-0.148494 0.0596681 0)
(-0.159151 0.0358452 0)
(-0.166906 0.00908061 0)
(-0.171119 -0.0206542 0)
(-0.170729 -0.0529252 0)
(-0.164299 -0.0863011 0)
(-0.150263 -0.117769 0)
(-0.127503 -0.1423 0)
(-0.0962377 -0.152957 0)
(-0.0593171 -0.14208 0)
(-0.0245011 -0.10411 0)
(-0.00449147 -0.040104 0)
(-0.00357972 0.0418647 0)
(-0.017696 0.0992985 0)
(-0.0412762 0.131765 0)
(-0.0670356 0.144378 0)
(-0.0912868 0.142982 0)
(-0.112857 0.132371 0)
(-0.131489 0.11588 0)
(-0.147353 0.0954795 0)
(-0.160762 0.0720413 0)
(-0.171934 0.0456432 0)
(-0.180805 0.0158952 0)
(-0.186867 -0.0176849 0)
(-0.189018 -0.0551721 0)
(-0.185501 -0.0955436 0)
(-0.174044 -0.135804 0)
(-0.152397 -0.170098 0)
(-0.119372 -0.189288 0)
(-0.0767808 -0.181876 0)
(-0.0334062 -0.137601 0)
(-0.00658485 -0.0547329 0)
(-0.00468516 0.0522779 0)
(-0.0218782 0.121366 0)
(-0.0490055 0.157992 0)
(-0.0769577 0.170187 0)
(-0.101728 0.166219 0)
(-0.122558 0.152385 0)
(-0.139705 0.132802 0)
(-0.153826 0.10975 0)
(-0.165668 0.0841046 0)
(-0.175846 0.0557371 0)
(-0.184658 0.0238652 0)
(-0.191905 -0.0125666 0)
(-0.19668 -0.0543633 0)
(-0.197156 -0.101278 0)
(-0.190518 -0.150843 0)
(-0.173262 -0.196906 0)
(-0.142139 -0.228279 0)
(-0.0966124 -0.228679 0)
(-0.0450788 -0.18041 0)
(-0.00974564 -0.0750451 0)
(-0.00641607 0.0655062 0)
(-0.0275685 0.147431 0)
(-0.058093 0.186856 0)
(-0.0867512 0.196612 0)
(-0.109659 0.188348 0)
(-0.126973 0.170157 0)
(-0.139789 0.146946 0)
(-0.149423 0.121235 0)
(-0.157153 0.0938434 0)
(-0.164052 0.0643992 0)
(-0.170871 0.0317099 0)
(-0.177895 -0.00589833 0)
(-0.184701 -0.0501083 0)
(-0.189813 -0.101806 0)
(-0.190336 -0.159727 0)
(-0.181768 -0.21839 0)
(-0.158414 -0.265477 0)
(-0.115857 -0.279732 0)
(-0.0594075 -0.232952 0)
(-0.0144146 -0.103057 0)
(-0.00929674 0.0828927 0)
(-0.0355778 0.177932 0)
(-0.0683374 0.216986 0)
(-0.094402 0.220971 0)
(-0.11117 0.206058 0)
(-0.120587 0.182229 0)
(-0.124998 0.154983 0)
(-0.126519 0.126862 0)
(-0.126958 0.0984881 0)
(-0.127795 0.0692034 0)
(-0.1302 0.0374448 0)
(-0.134999 0.000998861 0)
(-0.142496 -0.0426699 0)
(-0.152065 -0.0957763 0)
(-0.161499 -0.158914 0)
(-0.166151 -0.228628 0)
(-0.158249 -0.293407 0)
(-0.128383 -0.328487 0)
(-0.0749199 -0.293075 0)
(-0.0209392 -0.140944 0)
(-0.0141975 0.106828 0)
(-0.0468576 0.212699 0)
(-0.0781714 0.245021 0)
(-0.0949614 0.238279 0)
(-0.0985151 0.214038 0)
(-0.0938065 0.183669 0)
(-0.0847448 0.152627 0)
(-0.0741796 0.123009 0)
(-0.0642233 0.094974 0)
(-0.0564892 0.0675147 0)
(-0.0523186 0.0387958 0)
(-0.0529232 0.00629404 0)
(-0.0593594 -0.0330926 0)
(-0.0722256 -0.0827407 0)
(-0.0908995 -0.145416 0)
(-0.112062 -0.221044 0)
(-0.127516 -0.30183 0)
(-0.123317 -0.363511 0)
(-0.0869339 -0.354071 0)
(-0.0287925 -0.190623 0)
(-0.0219451 0.141986 0)
(-0.0608595 0.249336 0)
(-0.0808339 0.263049 0)
(-0.0758681 0.239439 0)
(-0.0558912 0.204236 0)
(-0.0297338 0.168135 0)
(-0.00243483 0.135202 0)
(0.0230774 0.106327 0)
(0.0450293 0.0808749 0)
(0.0622365 0.0574361 0)
(0.0736637 0.0340727 0)
(0.0781127 0.00831814 0)
(0.0740553 -0.0229345 0)
(0.0596865 -0.0635434 0)
(0.0334481 -0.117976 0)
(-0.00437665 -0.190127 0)
(-0.04831 -0.27905 0)
(-0.0834305 -0.367964 0)
(-0.0844631 -0.401952 0)
(-0.0343329 -0.253012 0)
(-0.029989 0.195842 0)
(-0.0678363 0.277488 0)
(-0.052261 0.253099 0)
(-0.00566638 0.208931 0)
(0.0486454 0.166036 0)
(0.100761 0.129267 0)
(0.147063 0.0993836 0)
(0.186202 0.0754485 0)
(0.217853 0.0559198 0)
(0.242015 0.0391227 0)
(0.258507 0.0233006 0)
(0.266625 0.00648529 0)
(0.264871 -0.0137387 0)
(0.250738 -0.0406086 0)
(0.220699 -0.0787513 0)
(0.171027 -0.134694 0)
(0.100536 -0.215595 0)
(0.0169961 -0.320364 0)
(-0.0452803 -0.408925 0)
(-0.0249008 -0.319117 0)
(-0.0073814 0.252503 0)
(-0.0112298 0.261713 0)
(0.0821983 0.190503 0)
(0.18647 0.136167 0)
(0.273103 0.0979171 0)
(0.342154 0.0703505 0)
(0.39666 0.05056 0)
(0.438962 0.0362931 0)
(0.471056 0.025684 0)
(0.494479 0.0172673 0)
(0.510078 0.00983765 0)
(0.51785 0.00226153 0)
(0.516767 -0.0067298 0)
(0.504469 -0.0188562 0)
(0.476756 -0.036941 0)
(0.42703 -0.0663918 0)
(0.345617 -0.117851 0)
(0.221467 -0.206678 0)
(0.0814781 -0.326501 0)
(0.0423632 -0.331109 0)
(0.2849 0.140094 0)
(0.364969 0.124094 0)
(0.508754 0.0786571 0)
(0.620828 0.0490898 0)
(0.6917 0.0312171 0)
(0.738093 0.019987 0)
(0.770111 0.0128695 0)
(0.792498 0.00833675 0)
(0.808039 0.00535926 0)
(0.818502 0.00325711 0)
(0.82483 0.00156885 0)
(0.827265 -5.94188e-05 0)
(0.825376 -0.00196215 0)
(0.81792 -0.00455746 0)
(0.802405 -0.00855802 0)
(0.773983 -0.0155645 0)
(0.72229 -0.0297568 0)
(0.62075 -0.060968 0)
(0.451637 -0.121045 0)
(0.329001 -0.152977 0)
)
;

boundaryField
{
    movingWall
    {
        type            fixedValue;
        value           uniform (1 0 0);
    }
    fixedWalls
    {
        type            noSlip;
    }
    frontAndBack
    {
        type            empty;
    }
}


// ************************************************************************* //
